Position data

 480 atoms

 2 atom types

 0.0000  9.8380485869912  xlo xhi
 0.0000  12.7800000000000  ylo yhi
 0.0000  33.5000000000000  zlo zhi

Masses

  1   12.01100000   C
  2   12.01100000   C

Atoms

1  1      0.0000000000    0.0000000000    0.0000000000
2  1      1.2297560734    0.7100000000    0.0000000000
3  1      1.2297560734    2.1300000000    0.0000000000
4  1      0.0000000000    2.8400000000    0.0000000000
5  1      0.0000000000    4.2600000000    0.0000000000
6  1      1.2297560734    4.9700000000    0.0000000000
7  1      1.2297560734    6.3900000000    0.0000000000
8  1      0.0000000000    7.1000000000    0.0000000000
9  1      0.0000000000    8.5200000000    0.0000000000
10  1      1.2297560734    9.2300000000    0.0000000000
11  1      1.2297560734   10.6500000000    0.0000000000
12  1      0.0000000000   11.3600000000    0.0000000000
13  1      7.3785364402    0.0000000000    0.0000000000
14  1      8.6082925136    0.7100000000    0.0000000000
15  1      8.6082925136    2.1300000000    0.0000000000
16  1      7.3785364402    2.8400000000    0.0000000000
17  1      7.3785364402    4.2600000000    0.0000000000
18  1      8.6082925136    4.9700000000    0.0000000000
19  1      8.6082925136    6.3900000000    0.0000000000
20  1      7.3785364402    7.1000000000    0.0000000000
21  1      7.3785364402    8.5200000000    0.0000000000
22  1      8.6082925136    9.2300000000    0.0000000000
23  1      8.6082925136   10.6500000000    0.0000000000
24  1      7.3785364402   11.3600000000    0.0000000000
25  1      4.9190242935    0.0000000000    0.0000000000
26  1      6.1487803669    0.7100000000    0.0000000000
27  1      6.1487803669    2.1300000000    0.0000000000
28  1      4.9190242935    2.8400000000    0.0000000000
29  1      4.9190242935    4.2600000000    0.0000000000
30  1      6.1487803669    4.9700000000    0.0000000000
31  1      6.1487803669    6.3900000000    0.0000000000
32  1      4.9190242935    7.1000000000    0.0000000000
33  1      4.9190242935    8.5200000000    0.0000000000
34  1      6.1487803669    9.2300000000    0.0000000000
35  1      6.1487803669   10.6500000000    0.0000000000
36  1      4.9190242935   11.3600000000    0.0000000000
37  1      2.4595121467    0.0000000000    0.0000000000
38  1      3.6892682201    0.7100000000    0.0000000000
39  1      3.6892682201    2.1300000000    0.0000000000
40  1      2.4595121467    2.8400000000    0.0000000000
41  1      2.4595121467    4.2600000000    0.0000000000
42  1      3.6892682201    4.9700000000    0.0000000000
43  1      3.6892682201    6.3900000000    0.0000000000
44  1      2.4595121467    7.1000000000    0.0000000000
45  1      2.4595121467    8.5200000000    0.0000000000
46  1      3.6892682201    9.2300000000    0.0000000000
47  1      3.6892682201   10.6500000000    0.0000000000
48  1      2.4595121467   11.3600000000    0.0000000000
49  2      0.0000000000    1.4200000000    3.3500000000
50  2      1.2297560734    2.1300000000    3.3500000000
51  2      1.2297560734    3.5500000000    3.3500000000
52  2      0.0000000000    4.2600000000    3.3500000000
53  2      0.0000000000    5.6800000000    3.3500000000
54  2      1.2297560734    6.3900000000    3.3500000000
55  2      1.2297560734    7.8100000000    3.3500000000
56  2      0.0000000000    8.5200000000    3.3500000000
57  2      0.0000000000    9.9400000000    3.3500000000
58  2      1.2297560734   10.6500000000    3.3500000000
59  2      1.2297560734   12.0700000000    3.3500000000
60  2      0.0000000000   12.7800000000    3.3500000000
61  2      7.3785364402    1.4200000000    3.3500000000
62  2      8.6082925136    2.1300000000    3.3500000000
63  2      8.6082925136    3.5500000000    3.3500000000
64  2      7.3785364402    4.2600000000    3.3500000000
65  2      7.3785364402    5.6800000000    3.3500000000
66  2      8.6082925136    6.3900000000    3.3500000000
67  2      8.6082925136    7.8100000000    3.3500000000
68  2      7.3785364402    8.5200000000    3.3500000000
69  2      7.3785364402    9.9400000000    3.3500000000
70  2      8.6082925136   10.6500000000    3.3500000000
71  2      8.6082925136   12.0700000000    3.3500000000
72  2      7.3785364402   12.7800000000    3.3500000000
73  2      4.9190242935    1.4200000000    3.3500000000
74  2      6.1487803669    2.1300000000    3.3500000000
75  2      6.1487803669    3.5500000000    3.3500000000
76  2      4.9190242935    4.2600000000    3.3500000000
77  2      4.9190242935    5.6800000000    3.3500000000
78  2      6.1487803669    6.3900000000    3.3500000000
79  2      6.1487803669    7.8100000000    3.3500000000
80  2      4.9190242935    8.5200000000    3.3500000000
81  2      4.9190242935    9.9400000000    3.3500000000
82  2      6.1487803669   10.6500000000    3.3500000000
83  2      6.1487803669   12.0700000000    3.3500000000
84  2      4.9190242935   12.7800000000    3.3500000000
85  2      2.4595121467    1.4200000000    3.3500000000
86  2      3.6892682201    2.1300000000    3.3500000000
87  2      3.6892682201    3.5500000000    3.3500000000
88  2      2.4595121467    4.2600000000    3.3500000000
89  2      2.4595121467    5.6800000000    3.3500000000
90  2      3.6892682201    6.3900000000    3.3500000000
91  2      3.6892682201    7.8100000000    3.3500000000
92  2      2.4595121467    8.5200000000    3.3500000000
93  2      2.4595121467    9.9400000000    3.3500000000
94  2      3.6892682201   10.6500000000    3.3500000000
95  2      3.6892682201   12.0700000000    3.3500000000
96  2      2.4595121467   12.7800000000    3.3500000000
97  1      0.0000000000    0.0000000000    6.7000000000
98  1      1.2297560734    0.7100000000    6.7000000000
99  1      1.2297560734    2.1300000000    6.7000000000
100  1      0.0000000000    2.8400000000    6.7000000000
101  1      0.0000000000    4.2600000000    6.7000000000
102  1      1.2297560734    4.9700000000    6.7000000000
103  1      1.2297560734    6.3900000000    6.7000000000
104  1      0.0000000000    7.1000000000    6.7000000000
105  1      0.0000000000    8.5200000000    6.7000000000
106  1      1.2297560734    9.2300000000    6.7000000000
107  1      1.2297560734   10.6500000000    6.7000000000
108  1      0.0000000000   11.3600000000    6.7000000000
109  1      7.3785364402    0.0000000000    6.7000000000
110  1      8.6082925136    0.7100000000    6.7000000000
111  1      8.6082925136    2.1300000000    6.7000000000
112  1      7.3785364402    2.8400000000    6.7000000000
113  1      7.3785364402    4.2600000000    6.7000000000
114  1      8.6082925136    4.9700000000    6.7000000000
115  1      8.6082925136    6.3900000000    6.7000000000
116  1      7.3785364402    7.1000000000    6.7000000000
117  1      7.3785364402    8.5200000000    6.7000000000
118  1      8.6082925136    9.2300000000    6.7000000000
119  1      8.6082925136   10.6500000000    6.7000000000
120  1      7.3785364402   11.3600000000    6.7000000000
121  1      4.9190242935    0.0000000000    6.7000000000
122  1      6.1487803669    0.7100000000    6.7000000000
123  1      6.1487803669    2.1300000000    6.7000000000
124  1      4.9190242935    2.8400000000    6.7000000000
125  1      4.9190242935    4.2600000000    6.7000000000
126  1      6.1487803669    4.9700000000    6.7000000000
127  1      6.1487803669    6.3900000000    6.7000000000
128  1      4.9190242935    7.1000000000    6.7000000000
129  1      4.9190242935    8.5200000000    6.7000000000
130  1      6.1487803669    9.2300000000    6.7000000000
131  1      6.1487803669   10.6500000000    6.7000000000
132  1      4.9190242935   11.3600000000    6.7000000000
133  1      2.4595121467    0.0000000000    6.7000000000
134  1      3.6892682201    0.7100000000    6.7000000000
135  1      3.6892682201    2.1300000000    6.7000000000
136  1      2.4595121467    2.8400000000    6.7000000000
137  1      2.4595121467    4.2600000000    6.7000000000
138  1      3.6892682201    4.9700000000    6.7000000000
139  1      3.6892682201    6.3900000000    6.7000000000
140  1      2.4595121467    7.1000000000    6.7000000000
141  1      2.4595121467    8.5200000000    6.7000000000
142  1      3.6892682201    9.2300000000    6.7000000000
143  1      3.6892682201   10.6500000000    6.7000000000
144  1      2.4595121467   11.3600000000    6.7000000000
145  2      0.0000000000    1.4200000000   10.0500000000
146  2      1.2297560734    2.1300000000   10.0500000000
147  2      1.2297560734    3.5500000000   10.0500000000
148  2      0.0000000000    4.2600000000   10.0500000000
149  2      0.0000000000    5.6800000000   10.0500000000
150  2      1.2297560734    6.3900000000   10.0500000000
151  2      1.2297560734    7.8100000000   10.0500000000
152  2      0.0000000000    8.5200000000   10.0500000000
153  2      0.0000000000    9.9400000000   10.0500000000
154  2      1.2297560734   10.6500000000   10.0500000000
155  2      1.2297560734   12.0700000000   10.0500000000
156  2      0.0000000000   12.7800000000   10.0500000000
157  2      7.3785364402    1.4200000000   10.0500000000
158  2      8.6082925136    2.1300000000   10.0500000000
159  2      8.6082925136    3.5500000000   10.0500000000
160  2      7.3785364402    4.2600000000   10.0500000000
161  2      7.3785364402    5.6800000000   10.0500000000
162  2      8.6082925136    6.3900000000   10.0500000000
163  2      8.6082925136    7.8100000000   10.0500000000
164  2      7.3785364402    8.5200000000   10.0500000000
165  2      7.3785364402    9.9400000000   10.0500000000
166  2      8.6082925136   10.6500000000   10.0500000000
167  2      8.6082925136   12.0700000000   10.0500000000
168  2      7.3785364402   12.7800000000   10.0500000000
169  2      4.9190242935    1.4200000000   10.0500000000
170  2      6.1487803669    2.1300000000   10.0500000000
171  2      6.1487803669    3.5500000000   10.0500000000
172  2      4.9190242935    4.2600000000   10.0500000000
173  2      4.9190242935    5.6800000000   10.0500000000
174  2      6.1487803669    6.3900000000   10.0500000000
175  2      6.1487803669    7.8100000000   10.0500000000
176  2      4.9190242935    8.5200000000   10.0500000000
177  2      4.9190242935    9.9400000000   10.0500000000
178  2      6.1487803669   10.6500000000   10.0500000000
179  2      6.1487803669   12.0700000000   10.0500000000
180  2      4.9190242935   12.7800000000   10.0500000000
181  2      2.4595121467    1.4200000000   10.0500000000
182  2      3.6892682201    2.1300000000   10.0500000000
183  2      3.6892682201    3.5500000000   10.0500000000
184  2      2.4595121467    4.2600000000   10.0500000000
185  2      2.4595121467    5.6800000000   10.0500000000
186  2      3.6892682201    6.3900000000   10.0500000000
187  2      3.6892682201    7.8100000000   10.0500000000
188  2      2.4595121467    8.5200000000   10.0500000000
189  2      2.4595121467    9.9400000000   10.0500000000
190  2      3.6892682201   10.6500000000   10.0500000000
191  2      3.6892682201   12.0700000000   10.0500000000
192  2      2.4595121467   12.7800000000   10.0500000000
193  1      0.0000000000    0.0000000000   13.4000000000
194  1      1.2297560734    0.7100000000   13.4000000000
195  1      1.2297560734    2.1300000000   13.4000000000
196  1      0.0000000000    2.8400000000   13.4000000000
197  1      0.0000000000    4.2600000000   13.4000000000
198  1      1.2297560734    4.9700000000   13.4000000000
199  1      1.2297560734    6.3900000000   13.4000000000
200  1      0.0000000000    7.1000000000   13.4000000000
201  1      0.0000000000    8.5200000000   13.4000000000
202  1      1.2297560734    9.2300000000   13.4000000000
203  1      1.2297560734   10.6500000000   13.4000000000
204  1      0.0000000000   11.3600000000   13.4000000000
205  1      7.3785364402    0.0000000000   13.4000000000
206  1      8.6082925136    0.7100000000   13.4000000000
207  1      8.6082925136    2.1300000000   13.4000000000
208  1      7.3785364402    2.8400000000   13.4000000000
209  1      7.3785364402    4.2600000000   13.4000000000
210  1      8.6082925136    4.9700000000   13.4000000000
211  1      8.6082925136    6.3900000000   13.4000000000
212  1      7.3785364402    7.1000000000   13.4000000000
213  1      7.3785364402    8.5200000000   13.4000000000
214  1      8.6082925136    9.2300000000   13.4000000000
215  1      8.6082925136   10.6500000000   13.4000000000
216  1      7.3785364402   11.3600000000   13.4000000000
217  1      4.9190242935    0.0000000000   13.4000000000
218  1      6.1487803669    0.7100000000   13.4000000000
219  1      6.1487803669    2.1300000000   13.4000000000
220  1      4.9190242935    2.8400000000   13.4000000000
221  1      4.9190242935    4.2600000000   13.4000000000
222  1      6.1487803669    4.9700000000   13.4000000000
223  1      6.1487803669    6.3900000000   13.4000000000
224  1      4.9190242935    7.1000000000   13.4000000000
225  1      4.9190242935    8.5200000000   13.4000000000
226  1      6.1487803669    9.2300000000   13.4000000000
227  1      6.1487803669   10.6500000000   13.4000000000
228  1      4.9190242935   11.3600000000   13.4000000000
229  1      2.4595121467    0.0000000000   13.4000000000
230  1      3.6892682201    0.7100000000   13.4000000000
231  1      3.6892682201    2.1300000000   13.4000000000
232  1      2.4595121467    2.8400000000   13.4000000000
233  1      2.4595121467    4.2600000000   13.4000000000
234  1      3.6892682201    4.9700000000   13.4000000000
235  1      3.6892682201    6.3900000000   13.4000000000
236  1      2.4595121467    7.1000000000   13.4000000000
237  1      2.4595121467    8.5200000000   13.4000000000
238  1      3.6892682201    9.2300000000   13.4000000000
239  1      3.6892682201   10.6500000000   13.4000000000
240  1      2.4595121467   11.3600000000   13.4000000000
241  2      0.0000000000    1.4200000000   16.7500000000
242  2      1.2297560734    2.1300000000   16.7500000000
243  2      1.2297560734    3.5500000000   16.7500000000
244  2      0.0000000000    4.2600000000   16.7500000000
245  2      0.0000000000    5.6800000000   16.7500000000
246  2      1.2297560734    6.3900000000   16.7500000000
247  2      1.2297560734    7.8100000000   16.7500000000
248  2      0.0000000000    8.5200000000   16.7500000000
249  2      0.0000000000    9.9400000000   16.7500000000
250  2      1.2297560734   10.6500000000   16.7500000000
251  2      1.2297560734   12.0700000000   16.7500000000
252  2      0.0000000000   12.7800000000   16.7500000000
253  2      7.3785364402    1.4200000000   16.7500000000
254  2      8.6082925136    2.1300000000   16.7500000000
255  2      8.6082925136    3.5500000000   16.7500000000
256  2      7.3785364402    4.2600000000   16.7500000000
257  2      7.3785364402    5.6800000000   16.7500000000
258  2      8.6082925136    6.3900000000   16.7500000000
259  2      8.6082925136    7.8100000000   16.7500000000
260  2      7.3785364402    8.5200000000   16.7500000000
261  2      7.3785364402    9.9400000000   16.7500000000
262  2      8.6082925136   10.6500000000   16.7500000000
263  2      8.6082925136   12.0700000000   16.7500000000
264  2      7.3785364402   12.7800000000   16.7500000000
265  2      4.9190242935    1.4200000000   16.7500000000
266  2      6.1487803669    2.1300000000   16.7500000000
267  2      6.1487803669    3.5500000000   16.7500000000
268  2      4.9190242935    4.2600000000   16.7500000000
269  2      4.9190242935    5.6800000000   16.7500000000
270  2      6.1487803669    6.3900000000   16.7500000000
271  2      6.1487803669    7.8100000000   16.7500000000
272  2      4.9190242935    8.5200000000   16.7500000000
273  2      4.9190242935    9.9400000000   16.7500000000
274  2      6.1487803669   10.6500000000   16.7500000000
275  2      6.1487803669   12.0700000000   16.7500000000
276  2      4.9190242935   12.7800000000   16.7500000000
277  2      2.4595121467    1.4200000000   16.7500000000
278  2      3.6892682201    2.1300000000   16.7500000000
279  2      3.6892682201    3.5500000000   16.7500000000
280  2      2.4595121467    4.2600000000   16.7500000000
281  2      2.4595121467    5.6800000000   16.7500000000
282  2      3.6892682201    6.3900000000   16.7500000000
283  2      3.6892682201    7.8100000000   16.7500000000
284  2      2.4595121467    8.5200000000   16.7500000000
285  2      2.4595121467    9.9400000000   16.7500000000
286  2      3.6892682201   10.6500000000   16.7500000000
287  2      3.6892682201   12.0700000000   16.7500000000
288  2      2.4595121467   12.7800000000   16.7500000000
289  1      0.0000000000    0.0000000000   20.1000000000
290  1      1.2297560734    0.7100000000   20.1000000000
291  1      1.2297560734    2.1300000000   20.1000000000
292  1      0.0000000000    2.8400000000   20.1000000000
293  1      0.0000000000    4.2600000000   20.1000000000
294  1      1.2297560734    4.9700000000   20.1000000000
295  1      1.2297560734    6.3900000000   20.1000000000
296  1      0.0000000000    7.1000000000   20.1000000000
297  1      0.0000000000    8.5200000000   20.1000000000
298  1      1.2297560734    9.2300000000   20.1000000000
299  1      1.2297560734   10.6500000000   20.1000000000
300  1      0.0000000000   11.3600000000   20.1000000000
301  1      7.3785364402    0.0000000000   20.1000000000
302  1      8.6082925136    0.7100000000   20.1000000000
303  1      8.6082925136    2.1300000000   20.1000000000
304  1      7.3785364402    2.8400000000   20.1000000000
305  1      7.3785364402    4.2600000000   20.1000000000
306  1      8.6082925136    4.9700000000   20.1000000000
307  1      8.6082925136    6.3900000000   20.1000000000
308  1      7.3785364402    7.1000000000   20.1000000000
309  1      7.3785364402    8.5200000000   20.1000000000
310  1      8.6082925136    9.2300000000   20.1000000000
311  1      8.6082925136   10.6500000000   20.1000000000
312  1      7.3785364402   11.3600000000   20.1000000000
313  1      4.9190242935    0.0000000000   20.1000000000
314  1      6.1487803669    0.7100000000   20.1000000000
315  1      6.1487803669    2.1300000000   20.1000000000
316  1      4.9190242935    2.8400000000   20.1000000000
317  1      4.9190242935    4.2600000000   20.1000000000
318  1      6.1487803669    4.9700000000   20.1000000000
319  1      6.1487803669    6.3900000000   20.1000000000
320  1      4.9190242935    7.1000000000   20.1000000000
321  1      4.9190242935    8.5200000000   20.1000000000
322  1      6.1487803669    9.2300000000   20.1000000000
323  1      6.1487803669   10.6500000000   20.1000000000
324  1      4.9190242935   11.3600000000   20.1000000000
325  1      2.4595121467    0.0000000000   20.1000000000
326  1      3.6892682201    0.7100000000   20.1000000000
327  1      3.6892682201    2.1300000000   20.1000000000
328  1      2.4595121467    2.8400000000   20.1000000000
329  1      2.4595121467    4.2600000000   20.1000000000
330  1      3.6892682201    4.9700000000   20.1000000000
331  1      3.6892682201    6.3900000000   20.1000000000
332  1      2.4595121467    7.1000000000   20.1000000000
333  1      2.4595121467    8.5200000000   20.1000000000
334  1      3.6892682201    9.2300000000   20.1000000000
335  1      3.6892682201   10.6500000000   20.1000000000
336  1      2.4595121467   11.3600000000   20.1000000000
337  2      0.0000000000    1.4200000000   23.4500000000
338  2      1.2297560734    2.1300000000   23.4500000000
339  2      1.2297560734    3.5500000000   23.4500000000
340  2      0.0000000000    4.2600000000   23.4500000000
341  2      0.0000000000    5.6800000000   23.4500000000
342  2      1.2297560734    6.3900000000   23.4500000000
343  2      1.2297560734    7.8100000000   23.4500000000
344  2      0.0000000000    8.5200000000   23.4500000000
345  2      0.0000000000    9.9400000000   23.4500000000
346  2      1.2297560734   10.6500000000   23.4500000000
347  2      1.2297560734   12.0700000000   23.4500000000
348  2      0.0000000000   12.7800000000   23.4500000000
349  2      7.3785364402    1.4200000000   23.4500000000
350  2      8.6082925136    2.1300000000   23.4500000000
351  2      8.6082925136    3.5500000000   23.4500000000
352  2      7.3785364402    4.2600000000   23.4500000000
353  2      7.3785364402    5.6800000000   23.4500000000
354  2      8.6082925136    6.3900000000   23.4500000000
355  2      8.6082925136    7.8100000000   23.4500000000
356  2      7.3785364402    8.5200000000   23.4500000000
357  2      7.3785364402    9.9400000000   23.4500000000
358  2      8.6082925136   10.6500000000   23.4500000000
359  2      8.6082925136   12.0700000000   23.4500000000
360  2      7.3785364402   12.7800000000   23.4500000000
361  2      4.9190242935    1.4200000000   23.4500000000
362  2      6.1487803669    2.1300000000   23.4500000000
363  2      6.1487803669    3.5500000000   23.4500000000
364  2      4.9190242935    4.2600000000   23.4500000000
365  2      4.9190242935    5.6800000000   23.4500000000
366  2      6.1487803669    6.3900000000   23.4500000000
367  2      6.1487803669    7.8100000000   23.4500000000
368  2      4.9190242935    8.5200000000   23.4500000000
369  2      4.9190242935    9.9400000000   23.4500000000
370  2      6.1487803669   10.6500000000   23.4500000000
371  2      6.1487803669   12.0700000000   23.4500000000
372  2      4.9190242935   12.7800000000   23.4500000000
373  2      2.4595121467    1.4200000000   23.4500000000
374  2      3.6892682201    2.1300000000   23.4500000000
375  2      3.6892682201    3.5500000000   23.4500000000
376  2      2.4595121467    4.2600000000   23.4500000000
377  2      2.4595121467    5.6800000000   23.4500000000
378  2      3.6892682201    6.3900000000   23.4500000000
379  2      3.6892682201    7.8100000000   23.4500000000
380  2      2.4595121467    8.5200000000   23.4500000000
381  2      2.4595121467    9.9400000000   23.4500000000
382  2      3.6892682201   10.6500000000   23.4500000000
383  2      3.6892682201   12.0700000000   23.4500000000
384  2      2.4595121467   12.7800000000   23.4500000000
385  1      0.0000000000    0.0000000000   26.8000000000
386  1      1.2297560734    0.7100000000   26.8000000000
387  1      1.2297560734    2.1300000000   26.8000000000
388  1      0.0000000000    2.8400000000   26.8000000000
389  1      0.0000000000    4.2600000000   26.8000000000
390  1      1.2297560734    4.9700000000   26.8000000000
391  1      1.2297560734    6.3900000000   26.8000000000
392  1      0.0000000000    7.1000000000   26.8000000000
393  1      0.0000000000    8.5200000000   26.8000000000
394  1      1.2297560734    9.2300000000   26.8000000000
395  1      1.2297560734   10.6500000000   26.8000000000
396  1      0.0000000000   11.3600000000   26.8000000000
397  1      7.3785364402    0.0000000000   26.8000000000
398  1      8.6082925136    0.7100000000   26.8000000000
399  1      8.6082925136    2.1300000000   26.8000000000
400  1      7.3785364402    2.8400000000   26.8000000000
401  1      7.3785364402    4.2600000000   26.8000000000
402  1      8.6082925136    4.9700000000   26.8000000000
403  1      8.6082925136    6.3900000000   26.8000000000
404  1      7.3785364402    7.1000000000   26.8000000000
405  1      7.3785364402    8.5200000000   26.8000000000
406  1      8.6082925136    9.2300000000   26.8000000000
407  1      8.6082925136   10.6500000000   26.8000000000
408  1      7.3785364402   11.3600000000   26.8000000000
409  1      4.9190242935    0.0000000000   26.8000000000
410  1      6.1487803669    0.7100000000   26.8000000000
411  1      6.1487803669    2.1300000000   26.8000000000
412  1      4.9190242935    2.8400000000   26.8000000000
413  1      4.9190242935    4.2600000000   26.8000000000
414  1      6.1487803669    4.9700000000   26.8000000000
415  1      6.1487803669    6.3900000000   26.8000000000
416  1      4.9190242935    7.1000000000   26.8000000000
417  1      4.9190242935    8.5200000000   26.8000000000
418  1      6.1487803669    9.2300000000   26.8000000000
419  1      6.1487803669   10.6500000000   26.8000000000
420  1      4.9190242935   11.3600000000   26.8000000000
421  1      2.4595121467    0.0000000000   26.8000000000
422  1      3.6892682201    0.7100000000   26.8000000000
423  1      3.6892682201    2.1300000000   26.8000000000
424  1      2.4595121467    2.8400000000   26.8000000000
425  1      2.4595121467    4.2600000000   26.8000000000
426  1      3.6892682201    4.9700000000   26.8000000000
427  1      3.6892682201    6.3900000000   26.8000000000
428  1      2.4595121467    7.1000000000   26.8000000000
429  1      2.4595121467    8.5200000000   26.8000000000
430  1      3.6892682201    9.2300000000   26.8000000000
431  1      3.6892682201   10.6500000000   26.8000000000
432  1      2.4595121467   11.3600000000   26.8000000000
433  2      0.0000000000    1.4200000000   30.1500000000
434  2      1.2297560734    2.1300000000   30.1500000000
435  2      1.2297560734    3.5500000000   30.1500000000
436  2      0.0000000000    4.2600000000   30.1500000000
437  2      0.0000000000    5.6800000000   30.1500000000
438  2      1.2297560734    6.3900000000   30.1500000000
439  2      1.2297560734    7.8100000000   30.1500000000
440  2      0.0000000000    8.5200000000   30.1500000000
441  2      0.0000000000    9.9400000000   30.1500000000
442  2      1.2297560734   10.6500000000   30.1500000000
443  2      1.2297560734   12.0700000000   30.1500000000
444  2      0.0000000000   12.7800000000   30.1500000000
445  2      7.3785364402    1.4200000000   30.1500000000
446  2      8.6082925136    2.1300000000   30.1500000000
447  2      8.6082925136    3.5500000000   30.1500000000
448  2      7.3785364402    4.2600000000   30.1500000000
449  2      7.3785364402    5.6800000000   30.1500000000
450  2      8.6082925136    6.3900000000   30.1500000000
451  2      8.6082925136    7.8100000000   30.1500000000
452  2      7.3785364402    8.5200000000   30.1500000000
453  2      7.3785364402    9.9400000000   30.1500000000
454  2      8.6082925136   10.6500000000   30.1500000000
455  2      8.6082925136   12.0700000000   30.1500000000
456  2      7.3785364402   12.7800000000   30.1500000000
457  2      4.9190242935    1.4200000000   30.1500000000
458  2      6.1487803669    2.1300000000   30.1500000000
459  2      6.1487803669    3.5500000000   30.1500000000
460  2      4.9190242935    4.2600000000   30.1500000000
461  2      4.9190242935    5.6800000000   30.1500000000
462  2      6.1487803669    6.3900000000   30.1500000000
463  2      6.1487803669    7.8100000000   30.1500000000
464  2      4.9190242935    8.5200000000   30.1500000000
465  2      4.9190242935    9.9400000000   30.1500000000
466  2      6.1487803669   10.6500000000   30.1500000000
467  2      6.1487803669   12.0700000000   30.1500000000
468  2      4.9190242935   12.7800000000   30.1500000000
469  2      2.4595121467    1.4200000000   30.1500000000
470  2      3.6892682201    2.1300000000   30.1500000000
471  2      3.6892682201    3.5500000000   30.1500000000
472  2      2.4595121467    4.2600000000   30.1500000000
473  2      2.4595121467    5.6800000000   30.1500000000
474  2      3.6892682201    6.3900000000   30.1500000000
475  2      3.6892682201    7.8100000000   30.1500000000
476  2      2.4595121467    8.5200000000   30.1500000000
477  2      2.4595121467    9.9400000000   30.1500000000
478  2      3.6892682201   10.6500000000   30.1500000000
479  2      3.6892682201   12.0700000000   30.1500000000
480  2      2.4595121467   12.7800000000   30.1500000000
