Position data

 38220 atoms

 6 atom types

 0.0000  60.4033124479214  xlo xhi
 0.0000  62.7729636631544  ylo yhi
 0.0000  105.9558582250327  zlo zhi

Masses

  1   55.84500000  Fe
  2   35.45000000  Cl
  3   12.01100000   C
  4   12.01100000   C
  5   12.01100000   C
  6   12.01100000   C

Atoms

1  3  0.0794667   -0.0000000000    1.3949547481    1.6454571852
2  3  0.0794667   48.3226499583   44.6385519382    1.6454571852
3  3  0.0794667   59.1952461990   45.3360293123    1.6454571852
4  3  0.0794667   49.5307162073   42.5461198161    1.6454571852
5  3  0.0794667   53.1549149542   44.6385519382    1.6454571852
6  3  0.0794667   54.3629812031   45.3360293123    1.6454571852
7  3  0.0794667   51.9468487052   46.7309840603    1.6454571852
8  3  0.0794667   57.9871799500   47.4284614344    1.6454571852
9  3  0.0794667   49.5307162073   49.5208935565    1.6454571852
10  3  0.0794667   53.1549149542   51.6133256786    1.6454571852
11  3  0.0794667   55.5710474521   48.8234161825    1.6454571852
12  3  0.0794667   54.3629812031   49.5208935565    1.6454571852
13  3  0.0794667   56.7791137010   46.7309840603    1.6454571852
14  3  0.0794667   55.5710474521   47.4284614344    1.6454571852
15  3  0.0794667   57.9871799500   44.6385519382    1.6454571852
16  3  0.0794667   54.3629812031   50.9158483046    1.6454571852
17  3  0.0794667   56.7791137010   45.3360293123    1.6454571852
18  3  0.0794667   59.1952461990   46.7309840603    1.6454571852
19  3  0.0794667   57.9871799500   48.8234161825    1.6454571852
20  3  0.0794667   49.5307162073   46.7309840603    1.6454571852
21  3  0.0794667   59.1952461990   49.5208935565    1.6454571852
22  3  0.0794667   59.1952461990   50.9158483046    1.6454571852
23  3  0.0794667   57.9871799500   51.6133256786    1.6454571852
24  3  0.0794667   53.1549149542   43.2435971902    1.6454571852
25  3  0.0794667   54.3629812031   42.5461198161    1.6454571852
26  3  0.0794667   50.7387824563   47.4284614344    1.6454571852
27  3  0.0794667   49.5307162073   45.3360293123    1.6454571852
28  3  0.0794667   50.7387824563   44.6385519382    1.6454571852
29  3  0.0794667   56.7791137010   49.5208935565    1.6454571852
30  3  0.0794667   51.9468487052   42.5461198161    1.6454571852
31  3  0.0794667   50.7387824563   43.2435971902    1.6454571852
32  3  0.0794667   56.7791137010   50.9158483046    1.6454571852
33  3  0.0794667   55.5710474521   51.6133256786    1.6454571852
34  3  0.0794667   51.9468487052   45.3360293123    1.6454571852
35  3  0.0794667   48.3226499583   47.4284614344    1.6454571852
36  3  0.0794667   57.9871799500   43.2435971902    1.6454571852
37  3  0.0794667   50.7387824563   51.6133256786    1.6454571852
38  3  0.0794667   51.9468487052   62.0754862891    1.6454571852
39  3  0.0794667   53.1549149542   61.3780089151    1.6454571852
40  3  0.0794667   59.1952461990   53.7057578007    1.6454571852
41  3  0.0794667   48.3226499583   53.0082804267    1.6454571852
42  3  0.0794667   57.9871799500   55.7981899228    1.6454571852
43  3  0.0794667   59.1952461990   55.1007125488    1.6454571852
44  3  0.0794667   54.3629812031   59.2855767930    1.6454571852
45  3  0.0794667   57.9871799500   57.1931446709    1.6454571852
46  3  0.0794667   55.5710474521   59.9830541670    1.6454571852
47  3  0.0794667   56.7791137010   59.2855767930    1.6454571852
48  3  0.0794667   54.3629812031   62.0754862891    1.6454571852
49  3  0.0794667   55.5710474521   61.3780089151    1.6454571852
50  3  0.0794667   49.5307162073   53.7057578007    1.6454571852
51  3  0.0794667   50.7387824563   53.0082804267    1.6454571852
52  3  0.0794667   48.3226499583   61.3780089151    1.6454571852
53  3  0.0794667   51.9468487052   50.9158483046    1.6454571852
54  3  0.0794667   53.1549149542   59.9830541670    1.6454571852
55  3  0.0794667   54.3629812031   57.8906220449    1.6454571852
56  3  0.0794667   53.1549149542   48.8234161825    1.6454571852
57  3  0.0794667   51.9468487052   49.5208935565    1.6454571852
58  3  0.0794667   54.3629812031   46.7309840603    1.6454571852
59  3  0.0794667   53.1549149542   47.4284614344    1.6454571852
60  3  0.0794667   55.5710474521   44.6385519382    1.6454571852
61  3  0.0794667   56.7791137010   42.5461198161    1.6454571852
62  3  0.0794667   55.5710474521   57.1931446709    1.6454571852
63  3  0.0794667   55.5710474521   43.2435971902    1.6454571852
64  3  0.0794667   48.3226499583   51.6133256786    1.6454571852
65  3  0.0794667   50.7387824563   48.8234161825    1.6454571852
66  3  0.0794667   59.1952461990   42.5461198161    1.6454571852
67  3  0.0794667   59.1952461990   59.2855767930    1.6454571852
68  3  0.0794667   57.9871799500   59.9830541670    1.6454571852
69  3  0.0794667   56.7791137010   57.8906220449    1.6454571852
70  3  0.0794667   49.5307162073   50.9158483046    1.6454571852
71  3  0.0794667   48.3226499583   48.8234161825    1.6454571852
72  3  0.0794667   48.3226499583    6.9747737404    1.6454571852
73  3  0.0794667   48.3226499583    5.5798189923    1.6454571852
74  3  0.0794667   54.3629812031   16.0419796028    1.6454571852
75  3  0.0794667   56.7791137010   16.0419796028    1.6454571852
76  3  0.0794667   57.9871799500   18.1344117249    1.6454571852
77  3  0.0794667   59.1952461990   17.4369343509    1.6454571852
78  3  0.0794667   59.1952461990    0.6974773740    1.6454571852
79  3  0.0794667   50.7387824563    6.9747737404    1.6454571852
80  3  0.0794667   55.5710474521   15.3445022288    1.6454571852
81  3  0.0794667   48.3226499583    9.7646832365    1.6454571852
82  3  0.0794667   55.5710474521    1.3949547481    1.6454571852
83  3  0.0794667   56.7791137010    0.6974773740    1.6454571852
84  3  0.0794667   55.5710474521    2.7899094961    1.6454571852
85  3  0.0794667   53.1549149542    5.5798189923    1.6454571852
86  3  0.0794667   54.3629812031    4.8823416182    1.6454571852
87  3  0.0794667   51.9468487052    7.6722511144    1.6454571852
88  3  0.0794667   49.5307162073    9.0672058625    1.6454571852
89  3  0.0794667   53.1549149542    6.9747737404    1.6454571852
90  3  0.0794667   53.1549149542   18.1344117249    1.6454571852
91  3  0.0794667   51.9468487052   20.2268438470    1.6454571852
92  3  0.0794667   48.3226499583   13.9495474807    1.6454571852
93  3  0.0794667   50.7387824563   11.1596379846    1.6454571852
94  3  0.0794667   49.5307162073   11.8571153586    1.6454571852
95  3  0.0794667   55.5710474521   19.5293664730    1.6454571852
96  3  0.0794667   54.3629812031   20.2268438470    1.6454571852
97  3  0.0794667   56.7791137010   17.4369343509    1.6454571852
98  3  0.0794667   54.3629812031   17.4369343509    1.6454571852
99  3  0.0794667   55.5710474521   18.1344117249    1.6454571852
100  3  0.0794667   57.9871799500   15.3445022288    1.6454571852
101  3  0.0794667   59.1952461990   13.2520701067    1.6454571852
102  3  0.0794667   57.9871799500   13.9495474807    1.6454571852
103  3  0.0794667   48.3226499583   11.1596379846    1.6454571852
104  3  0.0794667   59.1952461990   11.8571153586    1.6454571852
105  3  0.0794667   53.1549149542   19.5293664730    1.6454571852
106  3  0.0794667   48.3226499583   19.5293664730    1.6454571852
107  3  0.0794667   50.7387824563    9.7646832365    1.6454571852
108  3  0.0794667   51.9468487052    9.0672058625    1.6454571852
109  3  0.0794667   57.9871799500    1.3949547481    1.6454571852
110  3  0.0794667   55.5710474521    9.7646832365    1.6454571852
111  3  0.0794667   56.7791137010    9.0672058625    1.6454571852
112  3  0.0794667   50.7387824563    1.3949547481    1.6454571852
113  3  0.0794667   51.9468487052    0.6974773740    1.6454571852
114  3  0.0794667   56.7791137010    7.6722511144    1.6454571852
115  3  0.0794667   50.7387824563    2.7899094961    1.6454571852
116  3  0.0794667   57.9871799500    6.9747737404    1.6454571852
117  3  0.0794667   51.9468487052    3.4873868702    1.6454571852
118  3  0.0794667   54.3629812031    0.6974773740    1.6454571852
119  3  0.0794667   53.1549149542    1.3949547481    1.6454571852
120  3  0.0794667   57.9871799500    9.7646832365    1.6454571852
121  3  0.0794667   59.1952461990    9.0672058625    1.6454571852
122  3  0.0794667   59.1952461990    7.6722511144    1.6454571852
123  3  0.0794667   49.5307162073    4.8823416182    1.6454571852
124  3  0.0794667   49.5307162073    3.4873868702    1.6454571852
125  3  0.0794667   50.7387824563    5.5798189923    1.6454571852
126  3  0.0794667   59.1952461990    4.8823416182    1.6454571852
127  3  0.0794667   57.9871799500    5.5798189923    1.6454571852
128  3  0.0794667   56.7791137010    3.4873868702    1.6454571852
129  3  0.0794667   57.9871799500    2.7899094961    1.6454571852
130  3  0.0794667   55.5710474521    5.5798189923    1.6454571852
131  3  0.0794667   56.7791137010    4.8823416182    1.6454571852
132  3  0.0794667   54.3629812031    7.6722511144    1.6454571852
133  3  0.0794667   55.5710474521    6.9747737404    1.6454571852
134  3  0.0794667   53.1549149542    9.7646832365    1.6454571852
135  3  0.0794667   54.3629812031    9.0672058625    1.6454571852
136  3  0.0794667   49.5307162073    7.6722511144    1.6454571852
137  3  0.0794667   51.9468487052    4.8823416182    1.6454571852
138  3  0.0794667   54.3629812031    3.4873868702    1.6454571852
139  3  0.0794667   53.1549149542    2.7899094961    1.6454571852
140  3  0.0794667   49.5307162073    0.6974773740    1.6454571852
141  3  0.0794667   59.1952461990    3.4873868702    1.6454571852
142  3  0.0794667   48.3226499583    2.7899094961    1.6454571852
143  3  0.0794667   48.3226499583   55.7981899228    1.6454571852
144  3  0.0794667   49.5307162073   55.1007125488    1.6454571852
145  3  0.0794667   59.1952461990   57.8906220449    1.6454571852
146  3  0.0794667   48.3226499583   57.1931446709    1.6454571852
147  3  0.0794667    9.6645299917   22.3192759691    1.6454571852
148  3  0.0794667    8.4564637427   24.4117080912    1.6454571852
149  3  0.0794667    9.6645299917   23.7142307172    1.6454571852
150  3  0.0794667    7.2483974938   26.5041402133    1.6454571852
151  3  0.0794667    8.4564637427   25.8066628393    1.6454571852
152  3  0.0794667    6.0403312448   28.5965723354    1.6454571852
153  3  0.0794667    3.6241987469   29.9915270835    1.6454571852
154  3  0.0794667    7.2483974938   27.8990949614    1.6454571852
155  3  0.0794667    6.0403312448   29.9915270835    1.6454571852
156  3  0.0794667    1.2080662490   28.5965723354    1.6454571852
157  3  0.0794667    3.6241987469   25.8066628393    1.6454571852
158  3  0.0794667    6.0403312448   24.4117080912    1.6454571852
159  3  0.0794667    4.8322649958   23.7142307172    1.6454571852
160  3  0.0794667    1.2080662490   21.6217985951    1.6454571852
161  3  0.0794667    4.8322649958   30.6890044575    1.6454571852
162  3  0.0794667   10.8725962406   24.4117080912    1.6454571852
163  3  0.0794667    2.4161324979   30.6890044575    1.6454571852
164  3  0.0794667    3.6241987469   28.5965723354    1.6454571852
165  3  0.0794667    7.2483974938   36.2688234498    1.6454571852
166  3  0.0794667    6.0403312448   36.9663008239    1.6454571852
167  3  0.0794667    8.4564637427   36.9663008239    1.6454571852
168  3  0.0794667    9.6645299917   39.0587329460    1.6454571852
169  3  0.0794667   10.8725962406   38.3612555719    1.6454571852
170  3  0.0794667   10.8725962406   21.6217985951    1.6454571852
171  3  0.0794667    4.8322649958   27.8990949614    1.6454571852
172  3  0.0794667    2.4161324979   27.8990949614    1.6454571852
173  3  0.0794667    1.2080662490   29.9915270835    1.6454571852
174  3  0.0794667    7.2483974938   22.3192759691    1.6454571852
175  3  0.0794667    8.4564637427   21.6217985951    1.6454571852
176  3  0.0794667    7.2483974938   23.7142307172    1.6454571852
177  3  0.0794667    4.8322649958   26.5041402133    1.6454571852
178  3  0.0794667    6.0403312448   25.8066628393    1.6454571852
179  3  0.0794667   -0.0000000000   30.6890044575    1.6454571852
180  3  0.0794667   -0.0000000000   23.7142307172    1.6454571852
181  3  0.0794667    9.6645299917   26.5041402133    1.6454571852
182  3  0.0794667   10.8725962406   25.8066628393    1.6454571852
183  3  0.0794667   36.2419874688   26.5041402133    1.6454571852
184  3  0.0794667   37.4500537177   25.8066628393    1.6454571852
185  3  0.0794667   47.1145837094   28.5965723354    1.6454571852
186  3  0.0794667   47.1145837094   29.9915270835    1.6454571852
187  3  0.0794667   45.9065174604   30.6890044575    1.6454571852
188  3  0.0794667   41.0742524646   22.3192759691    1.6454571852
189  3  0.0794667   36.2419874688   27.8990949614    1.6454571852
190  3  0.0794667   42.2823187135   21.6217985951    1.6454571852
191  3  0.0794667   39.8661862156   24.4117080912    1.6454571852
192  3  0.0794667   38.6581199667   23.7142307172    1.6454571852
193  3  0.0794667   44.6984512115   28.5965723354    1.6454571852
194  3  0.0794667   39.8661862156   21.6217985951    1.6454571852
195  3  0.0794667   38.6581199667   22.3192759691    1.6454571852
196  3  0.0794667   44.6984512115   29.9915270835    1.6454571852
197  3  0.0794667   37.4500537177   24.4117080912    1.6454571852
198  3  0.0794667   -0.0000000000   27.8990949614    1.6454571852
199  3  0.0794667   -0.0000000000   26.5041402133    1.6454571852
200  3  0.0794667    1.2080662490   25.8066628393    1.6454571852
201  3  0.0794667    2.4161324979   26.5041402133    1.6454571852
202  3  0.0794667    9.6645299917   27.8990949614    1.6454571852
203  3  0.0794667    7.2483974938   30.6890044575    1.6454571852
204  3  0.0794667    8.4564637427   29.9915270835    1.6454571852
205  3  0.0794667    2.4161324979   22.3192759691    1.6454571852
206  3  0.0794667    3.6241987469   21.6217985951    1.6454571852
207  3  0.0794667    8.4564637427   28.5965723354    1.6454571852
208  3  0.0794667    2.4161324979   23.7142307172    1.6454571852
209  3  0.0794667    3.6241987469   24.4117080912    1.6454571852
210  3  0.0794667    1.2080662490   24.4117080912    1.6454571852
211  3  0.0794667    6.0403312448   21.6217985951    1.6454571852
212  3  0.0794667    4.8322649958   22.3192759691    1.6454571852
213  3  0.0794667    9.6645299917   30.6890044575    1.6454571852
214  3  0.0794667   10.8725962406   29.9915270835    1.6454571852
215  3  0.0794667   10.8725962406   28.5965723354    1.6454571852
216  3  0.0794667    4.8322649958   39.0587329460    1.6454571852
217  3  0.0794667   49.5307162073   13.2520701067    1.6454571852
218  3  0.0794667    6.0403312448   38.3612555719    1.6454571852
219  3  0.0794667    4.8322649958   40.4536876940    1.6454571852
220  3  0.0794667   54.3629812031   55.1007125488    1.6454571852
221  3  0.0794667   51.9468487052   57.8906220449    1.6454571852
222  3  0.0794667   53.1549149542   57.1931446709    1.6454571852
223  3  0.0794667   50.7387824563   59.9830541670    1.6454571852
224  3  0.0794667   51.9468487052   59.2855767930    1.6454571852
225  3  0.0794667   49.5307162073   62.0754862891    1.6454571852
226  3  0.0794667   53.1549149542   55.7981899228    1.6454571852
227  3  0.0794667   50.7387824563   61.3780089151    1.6454571852
228  3  0.0794667    2.4161324979   61.3780089151    1.6454571852
229  3  0.0794667   -0.0000000000   22.3192759691    1.6454571852
230  3  0.0794667    2.4161324979   40.4536876940    1.6454571852
231  3  0.0794667    1.2080662490   41.1511650681    1.6454571852
232  3  0.0794667    3.6241987469   38.3612555719    1.6454571852
233  3  0.0794667    2.4161324979   39.0587329460    1.6454571852
234  3  0.0794667   48.3226499583   43.2435971902    1.6454571852
235  3  0.0794667    4.8322649958   36.2688234498    1.6454571852
236  3  0.0794667   55.5710474521   53.0082804267    1.6454571852
237  3  0.0794667   56.7791137010   62.0754862891    1.6454571852
238  3  0.0794667   56.7791137010   55.1007125488    1.6454571852
239  3  0.0794667   55.5710474521   55.7981899228    1.6454571852
240  3  0.0794667   57.9871799500   53.0082804267    1.6454571852
241  3  0.0794667   56.7791137010   53.7057578007    1.6454571852
242  3  0.0794667   59.1952461990   62.0754862891    1.6454571852
243  3  0.0794667   49.5307162073   59.2855767930    1.6454571852
244  3  0.0794667   54.3629812031   53.7057578007    1.6454571852
245  3  0.0794667   48.3226499583   59.9830541670    1.6454571852
246  3  0.0794667   49.5307162073   57.8906220449    1.6454571852
247  3  0.0794667   51.9468487052   55.1007125488    1.6454571852
248  3  0.0794667   50.7387824563   55.7981899228    1.6454571852
249  3  0.0794667   53.1549149542   53.0082804267    1.6454571852
250  3  0.0794667   51.9468487052   53.7057578007    1.6454571852
251  3  0.0794667   57.9871799500   61.3780089151    1.6454571852
252  3  0.0794667   50.7387824563   57.1931446709    1.6454571852
253  3  0.0794667    3.6241987469   36.9663008239    1.6454571852
254  3  0.0794667    6.0403312448   34.1763913277    1.6454571852
255  3  0.0794667    4.8322649958   34.8738687018    1.6454571852
256  3  0.0794667    1.2080662490   34.1763913277    1.6454571852
257  3  0.0794667   -0.0000000000   34.8738687018    1.6454571852
258  3  0.0794667    2.4161324979   32.0839592056    1.6454571852
259  3  0.0794667    1.2080662490   32.7814365796    1.6454571852
260  3  0.0794667    7.2483974938   40.4536876940    1.6454571852
261  3  0.0794667    6.0403312448   41.1511650681    1.6454571852
262  3  0.0794667   10.8725962406   36.9663008239    1.6454571852
263  3  0.0794667    8.4564637427   38.3612555719    1.6454571852
264  3  0.0794667   -0.0000000000   40.4536876940    1.6454571852
265  3  0.0794667    9.6645299917   36.2688234498    1.6454571852
266  3  0.0794667   10.8725962406   34.1763913277    1.6454571852
267  3  0.0794667    9.6645299917   34.8738687018    1.6454571852
268  3  0.0794667    0.0000000000   32.0839592056    1.6454571852
269  3  0.0794667   10.8725962406   32.7814365796    1.6454571852
270  3  0.0794667    7.2483974938   39.0587329460    1.6454571852
271  3  0.0794667    0.0000000000   36.2688234498    1.6454571852
272  3  0.0794667    8.4564637427   34.1763913277    1.6454571852
273  3  0.0794667    7.2483974938   34.8738687018    1.6454571852
274  3  0.0794667    7.2483974938   32.0839592056    1.6454571852
275  3  0.0794667    6.0403312448   32.7814365796    1.6454571852
276  3  0.0794667    8.4564637427   41.1511650681    1.6454571852
277  3  0.0794667    9.6645299917   40.4536876940    1.6454571852
278  3  0.0794667    3.6241987469   32.7814365796    1.6454571852
279  3  0.0794667    4.8322649958   32.0839592056    1.6454571852
280  3  0.0794667    2.4161324979   34.8738687018    1.6454571852
281  3  0.0794667    3.6241987469   34.1763913277    1.6454571852
282  3  0.0794667    1.2080662490   36.9663008239    1.6454571852
283  3  0.0794667    2.4161324979   36.2688234498    1.6454571852
284  3  0.0794667   -0.0000000000   39.0587329460    1.6454571852
285  3  0.0794667    1.2080662490   38.3612555719    1.6454571852
286  3  0.0794667   10.8725962406   41.1511650681    1.6454571852
287  3  0.0794667    8.4564637427   32.7814365796    1.6454571852
288  3  0.0794667    9.6645299917   32.0839592056    1.6454571852
289  3  0.0794667    3.6241987469   41.1511650681    1.6454571852
290  3  0.0794667   43.4903849625   30.6890044575    1.6454571852
291  3  0.0794667   59.1952461990   16.0419796028    1.6454571852
292  3  0.0794667   56.7791137010   13.2520701067    1.6454571852
293  3  0.0794667   24.1613249792   55.7981899228    1.6454571852
294  3  0.0794667   26.5774574771   53.0082804267    1.6454571852
295  3  0.0794667   25.3693912281   53.7057578007    1.6454571852
296  3  0.0794667   31.4097224729   61.3780089151    1.6454571852
297  3  0.0794667   30.2016562240   62.0754862891    1.6454571852
298  3  0.0794667   32.6177887219   59.2855767930    1.6454571852
299  3  0.0794667   25.3693912281   55.1007125488    1.6454571852
300  3  0.0794667   31.4097224729   59.9830541670    1.6454571852
301  3  0.0794667   33.8258549708   57.1931446709    1.6454571852
302  3  0.0794667   35.0339212198   55.1007125488    1.6454571852
303  3  0.0794667   33.8258549708   55.7981899228    1.6454571852
304  3  0.0794667   24.1613249792   53.0082804267    1.6454571852
305  3  0.0794667   35.0339212198   53.7057578007    1.6454571852
306  3  0.0794667   28.9935899750   61.3780089151    1.6454571852
307  3  0.0794667   24.1613249792   61.3780089151    1.6454571852
308  3  0.0794667   27.7855237260   62.0754862891    1.6454571852
309  3  0.0794667   35.0339212198   57.8906220449    1.6454571852
310  3  0.0794667   32.6177887219   55.1007125488    1.6454571852
311  3  0.0794667   32.6177887219   62.0754862891    1.6454571852
312  3  0.0794667   33.8258549708   61.3780089151    1.6454571852
313  3  0.0794667   27.7855237260   53.7057578007    1.6454571852
314  3  0.0794667   28.9935899750   53.0082804267    1.6454571852
315  3  0.0794667   26.5774574771   55.7981899228    1.6454571852
316  3  0.0794667   27.7855237260   55.1007125488    1.6454571852
317  3  0.0794667   24.1613249792   57.1931446709    1.6454571852
318  3  0.0794667   25.3693912281   57.8906220449    1.6454571852
319  3  0.0794667   24.1613249792   59.9830541670    1.6454571852
320  3  0.0794667   25.3693912281   59.2855767930    1.6454571852
321  3  0.0794667   35.0339212198   62.0754862891    1.6454571852
322  3  0.0794667   32.6177887219   53.7057578007    1.6454571852
323  3  0.0794667   33.8258549708   53.0082804267    1.6454571852
324  3  0.0794667   31.4097224729   55.7981899228    1.6454571852
325  3  0.0794667   26.5774574771   57.1931446709    1.6454571852
326  3  0.0794667   30.2016562240   53.7057578007    1.6454571852
327  3  0.0794667   30.2016562240   59.2855767930    1.6454571852
328  3  0.0794667   31.4097224729   57.1931446709    1.6454571852
329  3  0.0794667   32.6177887219   45.3360293123    1.6454571852
330  3  0.0794667   33.8258549708   44.6385519382    1.6454571852
331  3  0.0794667   31.4097224729   47.4284614344    1.6454571852
332  3  0.0794667   32.6177887219   46.7309840603    1.6454571852
333  3  0.0794667   30.2016562240   49.5208935565    1.6454571852
334  3  0.0794667   31.4097224729   48.8234161825    1.6454571852
335  3  0.0794667   33.8258549708   43.2435971902    1.6454571852
336  3  0.0794667   28.9935899750   51.6133256786    1.6454571852
337  3  0.0794667   25.3693912281   49.5208935565    1.6454571852
338  3  0.0794667   27.7855237260   46.7309840603    1.6454571852
339  3  0.0794667   30.2016562240   45.3360293123    1.6454571852
340  3  0.0794667   28.9935899750   44.6385519382    1.6454571852
341  3  0.0794667   25.3693912281   42.5461198161    1.6454571852
342  3  0.0794667   35.0339212198   45.3360293123    1.6454571852
343  3  0.0794667   30.2016562240   50.9158483046    1.6454571852
344  3  0.0794667   28.9935899750   59.9830541670    1.6454571852
345  3  0.0794667   27.7855237260   50.9158483046    1.6454571852
346  3  0.0794667   28.9935899750   48.8234161825    1.6454571852
347  3  0.0794667   30.2016562240   57.8906220449    1.6454571852
348  3  0.0794667   32.6177887219   57.8906220449    1.6454571852
349  3  0.0794667   33.8258549708   59.9830541670    1.6454571852
350  3  0.0794667   35.0339212198   59.2855767930    1.6454571852
351  3  0.0794667   35.0339212198   42.5461198161    1.6454571852
352  3  0.0794667   26.5774574771   48.8234161825    1.6454571852
353  3  0.0794667   26.5774574771   51.6133256786    1.6454571852
354  3  0.0794667   24.1613249792   51.6133256786    1.6454571852
355  3  0.0794667   31.4097224729   43.2435971902    1.6454571852
356  3  0.0794667   32.6177887219   42.5461198161    1.6454571852
357  3  0.0794667   31.4097224729   44.6385519382    1.6454571852
358  3  0.0794667   28.9935899750   47.4284614344    1.6454571852
359  3  0.0794667   30.2016562240   46.7309840603    1.6454571852
360  3  0.0794667   27.7855237260   49.5208935565    1.6454571852
361  3  0.0794667   25.3693912281   50.9158483046    1.6454571852
362  3  0.0794667   31.4097224729   53.0082804267    1.6454571852
363  3  0.0794667   28.9935899750   55.7981899228    1.6454571852
364  3  0.0794667   30.2016562240   55.1007125488    1.6454571852
365  3  0.0794667   27.7855237260   41.1511650681    1.6454571852
366  3  0.0794667   28.9935899750   40.4536876940    1.6454571852
367  3  0.0794667   35.0339212198   32.7814365796    1.6454571852
368  3  0.0794667   24.1613249792   32.0839592056    1.6454571852
369  3  0.0794667   33.8258549708   34.8738687018    1.6454571852
370  3  0.0794667   35.0339212198   34.1763913277    1.6454571852
371  3  0.0794667   30.2016562240   38.3612555719    1.6454571852
372  3  0.0794667   33.8258549708   36.2688234498    1.6454571852
373  3  0.0794667   31.4097224729   39.0587329460    1.6454571852
374  3  0.0794667   32.6177887219   38.3612555719    1.6454571852
375  3  0.0794667   30.2016562240   41.1511650681    1.6454571852
376  3  0.0794667   31.4097224729   40.4536876940    1.6454571852
377  3  0.0794667   25.3693912281   32.7814365796    1.6454571852
378  3  0.0794667   26.5774574771   32.0839592056    1.6454571852
379  3  0.0794667   24.1613249792   40.4536876940    1.6454571852
380  3  0.0794667   24.1613249792   34.8738687018    1.6454571852
381  3  0.0794667   28.9935899750   39.0587329460    1.6454571852
382  3  0.0794667   30.2016562240   36.9663008239    1.6454571852
383  3  0.0794667   28.9935899750   27.8990949614    1.6454571852
384  3  0.0794667   27.7855237260   28.5965723354    1.6454571852
385  3  0.0794667   30.2016562240   25.8066628393    1.6454571852
386  3  0.0794667   28.9935899750   26.5041402133    1.6454571852
387  3  0.0794667   31.4097224729   23.7142307172    1.6454571852
388  3  0.0794667   32.6177887219   21.6217985951    1.6454571852
389  3  0.0794667   31.4097224729   36.2688234498    1.6454571852
390  3  0.0794667   31.4097224729   22.3192759691    1.6454571852
391  3  0.0794667   24.1613249792   30.6890044575    1.6454571852
392  3  0.0794667   26.5774574771   27.8990949614    1.6454571852
393  3  0.0794667   35.0339212198   21.6217985951    1.6454571852
394  3  0.0794667   35.0339212198   38.3612555719    1.6454571852
395  3  0.0794667   33.8258549708   39.0587329460    1.6454571852
396  3  0.0794667   32.6177887219   36.9663008239    1.6454571852
397  3  0.0794667   25.3693912281   29.9915270835    1.6454571852
398  3  0.0794667   25.3693912281   34.1763913277    1.6454571852
399  3  0.0794667   35.0339212198   36.9663008239    1.6454571852
400  3  0.0794667   24.1613249792   36.2688234498    1.6454571852
401  3  0.0794667   27.7855237260   36.9663008239    1.6454571852
402  3  0.0794667   28.9935899750   36.2688234498    1.6454571852
403  3  0.0794667   26.5774574771   39.0587329460    1.6454571852
404  3  0.0794667   27.7855237260   38.3612555719    1.6454571852
405  3  0.0794667   25.3693912281   41.1511650681    1.6454571852
406  3  0.0794667   26.5774574771   40.4536876940    1.6454571852
407  3  0.0794667   30.2016562240   34.1763913277    1.6454571852
408  3  0.0794667   24.1613249792   22.3192759691    1.6454571852
409  3  0.0794667   26.5774574771   61.3780089151    1.6454571852
410  3  0.0794667   25.3693912281   62.0754862891    1.6454571852
411  3  0.0794667   27.7855237260   59.2855767930    1.6454571852
412  3  0.0794667   26.5774574771   59.9830541670    1.6454571852
413  3  0.0794667   28.9935899750   57.1931446709    1.6454571852
414  3  0.0794667   27.7855237260   57.8906220449    1.6454571852
415  3  0.0794667   24.1613249792   43.2435971902    1.6454571852
416  3  0.0794667   28.9935899750   34.8738687018    1.6454571852
417  3  0.0794667   31.4097224729   32.0839592056    1.6454571852
418  3  0.0794667   30.2016562240   32.7814365796    1.6454571852
419  3  0.0794667   32.6177887219   34.1763913277    1.6454571852
420  3  0.0794667   31.4097224729   34.8738687018    1.6454571852
421  3  0.0794667   33.8258549708   32.0839592056    1.6454571852
422  3  0.0794667   32.6177887219   32.7814365796    1.6454571852
423  3  0.0794667   35.0339212198   41.1511650681    1.6454571852
424  3  0.0794667   25.3693912281   38.3612555719    1.6454571852
425  3  0.0794667   24.1613249792   39.0587329460    1.6454571852
426  3  0.0794667   26.5774574771   36.2688234498    1.6454571852
427  3  0.0794667   25.3693912281   36.9663008239    1.6454571852
428  3  0.0794667   27.7855237260   34.1763913277    1.6454571852
429  3  0.0794667   26.5774574771   34.8738687018    1.6454571852
430  3  0.0794667   28.9935899750   32.0839592056    1.6454571852
431  3  0.0794667   27.7855237260   32.7814365796    1.6454571852
432  3  0.0794667   33.8258549708   40.4536876940    1.6454571852
433  3  0.0794667   32.6177887219   41.1511650681    1.6454571852
434  3  0.0794667   24.1613249792   44.6385519382    1.6454571852
435  3  0.0794667   33.8258549708   47.4284614344    1.6454571852
436  3  0.0794667   35.0339212198   46.7309840603    1.6454571852
437  3  0.0794667   26.5774574771   47.4284614344    1.6454571852
438  3  0.0794667   20.5371262323   13.2520701067    1.6454571852
439  3  0.0794667   19.3290599833   13.9495474807    1.6454571852
440  3  0.0794667   21.7451924813   11.1596379846    1.6454571852
441  3  0.0794667   20.5371262323   11.8571153586    1.6454571852
442  3  0.0794667   22.9532587302   20.2268438470    1.6454571852
443  3  0.0794667   13.2887287385   17.4369343509    1.6454571852
444  3  0.0794667   12.0806624896   15.3445022288    1.6454571852
445  3  0.0794667   12.0806624896   18.1344117249    1.6454571852
446  3  0.0794667   13.2887287385   16.0419796028    1.6454571852
447  3  0.0794667   15.7048612365   13.2520701067    1.6454571852
448  3  0.0794667   14.4967949875   13.9495474807    1.6454571852
449  3  0.0794667   16.9129274854   11.1596379846    1.6454571852
450  3  0.0794667   15.7048612365   11.8571153586    1.6454571852
451  3  0.0794667   21.7451924813   19.5293664730    1.6454571852