Position data

 31296 atoms

 4 atom types

 0.0000  26.8000000000000  xlo xhi
 0.0000  25.5600000000000  ylo yhi
 0.0000  400.9004799198923  zlo zhi

Masses

  1   12.01100000   C
  2   12.01100000   C
  3   12.01100000   C
  4   12.01100000   C

Atoms

1  1    0.8375000000    0.0000000000    0.0000000000
2  1    0.8375000000   12.7800000000  238.5726782345
3  1    0.8375000000   13.4900000000  239.8024343079
4  1    0.8375000000   14.9100000000  239.8024343079
5  1    0.8375000000   15.6200000000  238.5726782345
6  1    0.8375000000   17.0400000000  238.5726782345
7  1    0.8375000000   17.7500000000  239.8024343079
8  1    0.8375000000   19.1700000000  239.8024343079
9  1    0.8375000000   19.8800000000  238.5726782345
10  1    0.8375000000   15.6200000000  391.0624313329
11  1    0.8375000000   19.8800000000   66.4068279622
12  1    0.8375000000   17.7500000000   67.6365840356
13  1    0.8375000000   17.0400000000   66.4068279622
14  1    0.8375000000   21.3000000000  238.5726782345
15  1    0.8375000000   22.0100000000  239.8024343079
16  1    0.8375000000   23.4300000000  239.8024343079
17  1    0.8375000000   24.1400000000  238.5726782345
18  1    0.8375000000    0.0000000000  241.0321903813
19  1    0.8375000000    0.7100000000  242.2619464547
20  1    0.8375000000   19.1700000000   67.6365840356
21  1    0.8375000000   15.6200000000   66.4068279622
22  1    0.8375000000   14.9100000000  392.2921874063
23  1    0.8375000000   22.0100000000   67.6365840356
24  1    0.8375000000    2.8400000000   68.8663401089
25  1    0.8375000000    2.1300000000   70.0960961823
26  1    0.8375000000    0.7100000000   70.0960961823
27  1    0.8375000000    0.0000000000   68.8663401089
28  1    0.8375000000    4.2600000000  238.5726782345
29  1    0.8375000000    4.9700000000  239.8024343079
30  1    0.8375000000   12.7800000000  391.0624313329
31  1    0.8375000000   13.4900000000  392.2921874063
32  1    0.8375000000   21.3000000000   66.4068279622
33  1    0.8375000000    6.3900000000  239.8024343079
34  1    0.8375000000   22.0100000000  370.1565780855
35  1    0.8375000000   21.3000000000  368.9268220122
36  1    0.8375000000    8.5200000000  238.5726782345
37  1    0.8375000000    9.2300000000  239.8024343079
38  1    0.8375000000   10.6500000000  239.8024343079
39  1    0.8375000000   11.3600000000  238.5726782345
40  1    0.8375000000   24.1400000000   66.4068279622
41  1    0.8375000000   23.4300000000   67.6365840356
42  1    0.8375000000    7.1000000000  238.5726782345
43  1    0.8375000000   23.4300000000  370.1565780855
44  1    0.8375000000   14.9100000000   67.6365840356
45  1    0.8375000000   12.7800000000   66.4068279622
46  1    0.8375000000    4.9700000000   67.6365840356
47  1    0.8375000000    4.2600000000   66.4068279622
48  1    0.8375000000   17.7500000000  370.1565780855
49  1    0.8375000000   17.0400000000  368.9268220122
50  1    0.8375000000   17.0400000000  241.0321903813
51  1    0.8375000000   17.7500000000  242.2619464547
52  1    0.8375000000   19.1700000000  242.2619464547
53  1    0.8375000000   19.8800000000  241.0321903813
54  1    0.8375000000    6.3900000000   67.6365840356
55  1    0.8375000000   21.3000000000  241.0321903813
56  1    0.8375000000    2.8400000000   66.4068279622
57  1    0.8375000000    2.1300000000   67.6365840356
58  1    0.8375000000    0.7100000000   67.6365840356
59  1    0.8375000000    0.0000000000   66.4068279622
60  1    0.8375000000   23.4300000000  242.2619464547
61  1    0.8375000000   24.1400000000  241.0321903813
62  1    0.8375000000    0.0000000000  243.4917025280
63  1    0.8375000000    0.7100000000  244.7214586014
64  1    0.8375000000   22.0100000000  242.2619464547
65  1    0.8375000000   13.4900000000   67.6365840356
66  1    0.8375000000    7.1000000000   66.4068279622
67  1    0.8375000000   14.9100000000  242.2619464547
68  1    0.8375000000    2.1300000000  242.2619464547
69  1    0.8375000000    2.8400000000  241.0321903813
70  1    0.8375000000    4.2600000000  241.0321903813
71  1    0.8375000000    4.9700000000  242.2619464547
72  1    0.8375000000    6.3900000000  242.2619464547
73  1    0.8375000000    7.1000000000  241.0321903813
74  1    0.8375000000   11.3600000000   66.4068279622
75  1    0.8375000000   10.6500000000   67.6365840356
76  1    0.8375000000   15.6200000000  241.0321903813
77  1    0.8375000000    9.2300000000   67.6365840356
78  1    0.8375000000    8.5200000000  241.0321903813
79  1    0.8375000000    9.2300000000  242.2619464547
80  1    0.8375000000   10.6500000000  242.2619464547
81  1    0.8375000000   11.3600000000  241.0321903813
82  1    0.8375000000   19.8800000000  368.9268220122
83  1    0.8375000000   19.1700000000  370.1565780855
84  1    0.8375000000   12.7800000000  241.0321903813
85  1    0.8375000000   13.4900000000  242.2619464547
86  1    0.8375000000    8.5200000000   66.4068279622
87  1    0.8375000000   24.1400000000  368.9268220122
88  1    0.8375000000    2.8400000000  238.5726782345
89  1    0.8375000000    2.1300000000  239.8024343079
90  1    0.8375000000    0.0000000000   71.3258522557
91  1    0.8375000000   12.7800000000  233.6536539410
92  1    0.8375000000   13.4900000000  234.8834100144
93  1    0.8375000000   14.9100000000  234.8834100144
94  1    0.8375000000   15.6200000000  233.6536539410
95  1    0.8375000000   17.0400000000  233.6536539410
96  1    0.8375000000   17.7500000000  234.8834100144
97  1    0.8375000000   19.1700000000  234.8834100144
98  1    0.8375000000    0.7100000000   72.5556083291
99  1    0.8375000000   19.8800000000  233.6536539410
100  1    0.8375000000   23.4300000000   70.0960961823
101  1    0.8375000000   22.0100000000   70.0960961823
102  1    0.8375000000   21.3000000000   68.8663401089
103  1    0.8375000000    2.8400000000  371.3863341589
104  1    0.8375000000    2.1300000000  372.6160902323
105  1    0.8375000000   21.3000000000  233.6536539410
106  1    0.8375000000   22.0100000000  234.8834100144
107  1    0.8375000000   23.4300000000  234.8834100144
108  1    0.8375000000   24.1400000000   68.8663401089
109  1    0.8375000000   24.1400000000  233.6536539410
110  1    0.8375000000    2.1300000000   72.5556083291
111  1    0.8375000000   11.3600000000  233.6536539410
112  1    0.8375000000    9.2300000000  392.2921874063
113  1    0.8375000000    0.0000000000  233.6536539410
114  1    0.8375000000    0.7100000000  234.8834100144
115  1    0.8375000000    2.1300000000  234.8834100144
116  1    0.8375000000    2.8400000000  233.6536539410
117  1    0.8375000000    4.2600000000  233.6536539410
118  1    0.8375000000    4.9700000000  234.8834100144
119  1    0.8375000000    6.3900000000  234.8834100144
120  1    0.8375000000    2.8400000000   71.3258522557
121  1    0.8375000000    7.1000000000  233.6536539410
122  1    0.8375000000    6.3900000000   72.5556083291
123  1    0.8375000000    4.9700000000   72.5556083291
124  1    0.8375000000    4.2600000000   71.3258522557
125  1    0.8375000000   10.6500000000  392.2921874063
126  1    0.8375000000   11.3600000000  391.0624313329
127  1    0.8375000000    8.5200000000  233.6536539410
128  1    0.8375000000    9.2300000000  234.8834100144
129  1    0.8375000000   10.6500000000  234.8834100144
130  1    0.8375000000    7.1000000000   71.3258522557
131  1    0.8375000000   19.8800000000   68.8663401089
132  1    0.8375000000   19.1700000000   70.0960961823
133  1    0.8375000000   17.7500000000   70.0960961823
134  1    0.8375000000   11.3600000000   68.8663401089
135  1    0.8375000000   10.6500000000   70.0960961823
136  1    0.8375000000    9.2300000000   70.0960961823
137  1    0.8375000000    8.5200000000   68.8663401089
138  1    0.8375000000   17.0400000000  236.1131660878
139  1    0.8375000000   17.7500000000  237.3429221612
140  1    0.8375000000   19.1700000000  237.3429221612
141  1    0.8375000000   19.8800000000  236.1131660878
142  1    0.8375000000   15.6200000000  236.1131660878
143  1    0.8375000000   21.3000000000  236.1131660878
144  1    0.8375000000   23.4300000000  237.3429221612
145  1    0.8375000000   24.1400000000  236.1131660878
146  1    0.8375000000    7.1000000000   68.8663401089
147  1    0.8375000000    6.3900000000   70.0960961823
148  1    0.8375000000    4.9700000000   70.0960961823
149  1    0.8375000000    4.2600000000   68.8663401089
150  1    0.8375000000    0.0000000000  238.5726782345
151  1    0.8375000000    0.7100000000  239.8024343079
152  1    0.8375000000   22.0100000000  237.3429221612
153  1    0.8375000000   14.9100000000  237.3429221612
154  1    0.8375000000   13.4900000000  237.3429221612
155  1    0.8375000000   12.7800000000  236.1131660878
156  1    0.8375000000   17.0400000000   68.8663401089
157  1    0.8375000000    0.7100000000  372.6160902323
158  1    0.8375000000    0.0000000000  371.3863341589
159  1    0.8375000000    0.0000000000  236.1131660878
160  1    0.8375000000    0.7100000000  237.3429221612
161  1    0.8375000000    2.1300000000  237.3429221612
162  1    0.8375000000    2.8400000000  236.1131660878
163  1    0.8375000000    4.2600000000  236.1131660878
164  1    0.8375000000    4.9700000000  237.3429221612
165  1    0.8375000000    6.3900000000  237.3429221612
166  1    0.8375000000    7.1000000000  236.1131660878
167  1    0.8375000000   15.6200000000   68.8663401089
168  1    0.8375000000   14.9100000000   70.0960961823
169  1    0.8375000000   13.4900000000   70.0960961823
170  1    0.8375000000   12.7800000000   68.8663401089
171  1    0.8375000000    8.5200000000  236.1131660878
172  1    0.8375000000    9.2300000000  237.3429221612
173  1    0.8375000000   10.6500000000  237.3429221612
174  1    0.8375000000   11.3600000000  236.1131660878
175  1    0.8375000000    2.1300000000  244.7214586014
176  1    0.8375000000    8.5200000000  391.0624313329
177  1    0.8375000000    2.8400000000  243.4917025280
178  1    0.8375000000    4.9700000000  244.7214586014
179  1    0.8375000000   11.3600000000   61.4878036687
180  1    0.8375000000   10.6500000000   62.7175597421
181  1    0.8375000000    9.2300000000   62.7175597421
182  1    0.8375000000    8.5200000000   61.4878036687
183  1    0.8375000000   21.3000000000  391.0624313329
184  1    0.8375000000   22.0100000000  392.2921874063
185  1    0.8375000000   21.3000000000  248.4107268215
186  1    0.8375000000   22.0100000000  249.6404828949
187  1    0.8375000000   19.8800000000  248.4107268215
188  1    0.8375000000   23.4300000000  249.6404828949
189  1    0.8375000000    0.0000000000  250.8702389683
190  1    0.8375000000    0.7100000000  252.0999950417
191  1    0.8375000000    2.1300000000  252.0999950417
192  1    0.8375000000    2.8400000000  250.8702389683
193  1    0.8375000000    7.1000000000   61.4878036687
194  1    0.8375000000    6.3900000000   62.7175597421
195  1    0.8375000000    4.9700000000   62.7175597421
196  1    0.8375000000    4.2600000000   61.4878036687
197  1    0.8375000000   24.1400000000  248.4107268215
198  1    0.8375000000   23.4300000000  392.2921874063
199  1    0.8375000000   19.1700000000  249.6404828949
200  1    0.8375000000   17.0400000000  248.4107268215
201  1    0.8375000000    4.2600000000  248.4107268215
202  1    0.8375000000    4.9700000000  249.6404828949
203  1    0.8375000000    6.3900000000  249.6404828949
204  1    0.8375000000    7.1000000000  248.4107268215
205  1    0.8375000000    9.2300000000  370.1565780855
206  1    0.8375000000    8.5200000000  368.9268220122
207  1    0.8375000000    8.5200000000  248.4107268215
208  1    0.8375000000    9.2300000000  249.6404828949
209  1    0.8375000000   17.7500000000  249.6404828949
210  1    0.8375000000   10.6500000000  249.6404828949
211  1    0.8375000000   15.6200000000   61.4878036687
212  1    0.8375000000   14.9100000000   62.7175597421
213  1    0.8375000000   13.4900000000   62.7175597421
214  1    0.8375000000   12.7800000000   61.4878036687
215  1    0.8375000000   12.7800000000  248.4107268215
216  1    0.8375000000   13.4900000000  249.6404828949
217  1    0.8375000000   14.9100000000  249.6404828949
218  1    0.8375000000   15.6200000000  248.4107268215
219  1    0.8375000000   11.3600000000  248.4107268215
220  1    0.8375000000   10.6500000000  370.1565780855
221  1    0.8375000000   24.1400000000  391.0624313329
222  1    0.8375000000    4.9700000000  252.0999950417
223  1    0.8375000000   17.0400000000  250.8702389683
224  1    0.8375000000   17.7500000000  252.0999950417
225  1    0.8375000000   19.1700000000  252.0999950417
226  1    0.8375000000   19.8800000000  250.8702389683
227  1    0.8375000000   19.8800000000   59.0282915219
228  1    0.8375000000   19.1700000000   60.2580475953
229  1    0.8375000000   17.7500000000   60.2580475953
230  1    0.8375000000   17.0400000000   59.0282915219
231  1    0.8375000000    4.2600000000  368.9268220122
232  1    0.8375000000   21.3000000000  250.8702389683
233  1    0.8375000000   23.4300000000  252.0999950417
234  1    0.8375000000   24.1400000000  250.8702389683
235  1    0.8375000000    0.0000000000  253.3297511150
236  1    0.8375000000    0.7100000000  254.5595071884
237  1    0.8375000000    2.1300000000  254.5595071884
238  1    0.8375000000    2.8400000000  253.3297511150
239  1    0.8375000000   15.6200000000   59.0282915219
240  1    0.8375000000   14.9100000000   60.2580475953
241  1    0.8375000000   22.0100000000  252.0999950417
242  1    0.8375000000    4.2600000000  250.8702389683
243  1    0.8375000000    4.9700000000  370.1565780855
244  1    0.8375000000   14.9100000000  252.0999950417
245  1    0.8375000000    6.3900000000  252.0999950417
246  1    0.8375000000    7.1000000000  250.8702389683
247  1    0.8375000000    2.8400000000   61.4878036687
248  1    0.8375000000    2.1300000000   62.7175597421
249  1    0.8375000000    0.7100000000   62.7175597421
250  1    0.8375000000    0.0000000000   61.4878036687
251  1    0.8375000000    8.5200000000  250.8702389683
252  1    0.8375000000    9.2300000000  252.0999950417
253  1    0.8375000000   15.6200000000  250.8702389683
254  1    0.8375000000   10.6500000000  252.0999950417
255  1    0.8375000000    7.1000000000  368.9268220122
256  1    0.8375000000    6.3900000000  370.1565780855
257  1    0.8375000000   24.1400000000   59.0282915219
258  1    0.8375000000   23.4300000000   60.2580475953
259  1    0.8375000000   22.0100000000   60.2580475953
260  1    0.8375000000   21.3000000000   59.0282915219
261  1    0.8375000000   12.7800000000  250.8702389683
262  1    0.8375000000   13.4900000000  252.0999950417
263  1    0.8375000000   11.3600000000  250.8702389683
264  1    0.8375000000   11.3600000000  368.9268220122
265  1    0.8375000000   17.0400000000   61.4878036687
266  1    0.8375000000   17.7500000000   62.7175597421
267  1    0.8375000000   17.7500000000  244.7214586014
268  1    0.8375000000   19.1700000000  244.7214586014
269  1    0.8375000000   19.8800000000  243.4917025280
270  1    0.8375000000   15.6200000000   63.9473158154
271  1    0.8375000000   14.9100000000   65.1770718888
272  1    0.8375000000   13.4900000000   65.1770718888
273  1    0.8375000000   12.7800000000   63.9473158154
274  1    0.8375000000   19.1700000000  392.2921874063
275  1    0.8375000000   17.0400000000  243.4917025280
276  1    0.8375000000   19.8800000000  391.0624313329
277  1    0.8375000000   14.9100000000  370.1565780855
278  1    0.8375000000   21.3000000000  243.4917025280
279  1    0.8375000000   22.0100000000  244.7214586014
280  1    0.8375000000   23.4300000000  244.7214586014
281  1    0.8375000000   24.1400000000  243.4917025280
282  1    0.8375000000   11.3600000000   63.9473158154
283  1    0.8375000000   10.6500000000   65.1770718888
284  1    0.8375000000    9.2300000000   65.1770718888
285  1    0.8375000000   15.6200000000  368.9268220122
286  1    0.8375000000    8.5200000000   63.9473158154
287  1    0.8375000000   15.6200000000  243.4917025280
288  1    0.8375000000   17.7500000000  392.2921874063
289  1    0.8375000000   24.1400000000   63.9473158154
290  1    0.8375000000   23.4300000000   65.1770718888
291  1    0.8375000000   22.0100000000   65.1770718888
292  1    0.8375000000   21.3000000000   63.9473158154
293  1    0.8375000000    6.3900000000  244.7214586014
294  1    0.8375000000    7.1000000000  243.4917025280
295  1    0.8375000000   17.7500000000  131.5838998510
296  1    0.8375000000    8.5200000000  243.4917025280
297  1    0.8375000000   14.9100000000  244.7214586014
298  1    0.8375000000    9.2300000000  244.7214586014
299  1    0.8375000000   11.3600000000  243.4917025280
300  1    0.8375000000   19.8800000000   63.9473158154
301  1    0.8375000000   19.1700000000   65.1770718888
302  1    0.8375000000   17.7500000000   65.1770718888
303  1    0.8375000000   17.0400000000   63.9473158154
304  1    0.8375000000   12.7800000000  243.4917025280
305  1    0.8375000000   13.4900000000  244.7214586014
306  1    0.8375000000   17.0400000000  391.0624313329
307  1    0.8375000000   10.6500000000  244.7214586014
308  1    0.8375000000   13.4900000000  370.1565780855
309  1    0.8375000000   12.7800000000  368.9268220122
310  1    0.8375000000    0.0000000000  245.9512146748
311  1    0.8375000000   17.0400000000  245.9512146748
312  1    0.8375000000   17.7500000000  247.1809707482
313  1    0.8375000000   19.1700000000  247.1809707482
314  1    0.8375000000   19.8800000000  245.9512146748
315  1    0.8375000000   21.3000000000  245.9512146748
316  1    0.8375000000   22.0100000000  247.1809707482
317  1    0.8375000000   23.4300000000  247.1809707482
318  1    0.8375000000   24.1400000000  245.9512146748
319  1    0.8375000000    0.0000000000   63.9473158154
320  1    0.8375000000   24.1400000000   61.4878036687
321  1    0.8375000000   22.0100000000   62.7175597421
322  1    0.8375000000   21.3000000000   61.4878036687
323  1    0.8375000000    0.0000000000  248.4107268215
324  1    0.8375000000    0.7100000000  249.6404828949
325  1    0.8375000000    2.1300000000  249.6404828949
326  1    0.8375000000    2.8400000000  248.4107268215
327  1    0.8375000000   19.8800000000   61.4878036687
328  1    0.8375000000   19.1700000000   62.7175597421
329  1    0.8375000000   23.4300000000   62.7175597421
330  1    0.8375000000    0.7100000000   65.1770718888
331  1    0.8375000000    2.1300000000   65.1770718888
332  1    0.8375000000    2.8400000000   63.9473158154
333  1    0.8375000000    0.7100000000  247.1809707482
334  1    0.8375000000    2.1300000000  247.1809707482
335  1    0.8375000000    2.8400000000  245.9512146748
336  1    0.8375000000    4.2600000000  245.9512146748
337  1    0.8375000000    4.9700000000  247.1809707482
338  1    0.8375000000    6.3900000000  247.1809707482
339  1    0.8375000000    7.1000000000  245.9512146748
340  1    0.8375000000    7.1000000000   63.9473158154
341  1    0.8375000000    6.3900000000   65.1770718888
342  1    0.8375000000    4.9700000000   65.1770718888
343  1    0.8375000000    4.2600000000   63.9473158154
344  1    0.8375000000    8.5200000000  245.9512146748
345  1    0.8375000000    9.2300000000  247.1809707482
346  1    0.8375000000   10.6500000000  247.1809707482
347  1    0.8375000000   11.3600000000  245.9512146748
348  1    0.8375000000   12.7800000000  245.9512146748
349  1    0.8375000000   13.4900000000  247.1809707482
350  1    0.8375000000   14.9100000000  247.1809707482
351  1    0.8375000000   15.6200000000  245.9512146748
352  1    0.8375000000    4.2600000000  243.4917025280
353  1    0.8375000000   13.4900000000   60.2580475953
354  1    0.8375000000    8.5200000000   71.3258522557
355  1    0.8375000000   10.6500000000   72.5556083291
356  1    0.8375000000   22.0100000000  372.6160902323
357  1    0.8375000000   21.3000000000  371.3863341589
358  1    0.8375000000    8.5200000000  218.8965810606
359  1    0.8375000000    9.2300000000  220.1263371339
360  1    0.8375000000   10.6500000000  220.1263371339
361  1    0.8375000000   11.3600000000  218.8965810606
362  1    0.8375000000   15.6200000000   78.7043886959
363  1    0.8375000000   14.9100000000   79.9341447693
364  1    0.8375000000    7.1000000000  218.8965810606
365  1    0.8375000000   13.4900000000   79.9341447693
366  1    0.8375000000   12.7800000000  218.8965810606
367  1    0.8375000000   13.4900000000  220.1263371339
368  1    0.8375000000   14.9100000000  220.1263371339
369  1    0.8375000000   15.6200000000  218.8965810606
370  1    0.8375000000   17.0400000000  218.8965810606
371  1    0.8375000000   17.7500000000  220.1263371339
372  1    0.8375000000   19.1700000000  220.1263371339
373  1    0.8375000000   19.8800000000  218.8965810606
374  1    0.8375000000   12.7800000000   78.7043886959
375  1    0.8375000000   11.3600000000   78.7043886959
376  1    0.8375000000    6.3900000000  220.1263371339
377  1    0.8375000000    4.2600000000  218.8965810606
378  1    0.8375000000   21.3000000000  216.4370689138
379  1    0.8375000000   22.0100000000  217.6668249872
380  1    0.8375000000   23.4300000000  217.6668249872
381  1    0.8375000000   24.1400000000  216.4370689138
382  1    0.8375000000   24.1400000000   78.7043886959
383  1    0.8375000000   23.4300000000   79.9341447693
384  1    0.8375000000   22.0100000000   79.9341447693
385  1    0.8375000000   21.3000000000   78.7043886959
386  1    0.8375000000    4.9700000000  220.1263371339
387  1    0.8375000000    0.0000000000  218.8965810606
388  1    0.8375000000    2.1300000000  220.1263371339
389  1    0.8375000000    2.8400000000  218.8965810606
390  1    0.8375000000   24.1400000000  371.3863341589
391  1    0.8375000000   23.4300000000  372.6160902323
392  1    0.8375000000   19.8800000000   78.7043886959
393  1    0.8375000000   19.1700000000   79.9341447693
394  1    0.8375000000   17.7500000000   79.9341447693
395  1    0.8375000000   17.0400000000   78.7043886959
396  1    0.8375000000    0.7100000000  220.1263371339
397  1    0.8375000000   19.8800000000  216.4370689138
398  1    0.8375000000   10.6500000000   79.9341447693
399  1    0.8375000000    8.5200000000   78.7043886959
400  1    0.8375000000    0.7100000000   79.9341447693
401  1    0.8375000000    0.0000000000   78.7043886959
402  1    0.8375000000    0.0000000000  391.0624313329
403  1    0.8375000000    0.7100000000  392.2921874063
404  1    0.8375000000   19.8800000000  371.3863341589
405  1    0.8375000000   19.1700000000  372.6160902323
406  1    0.8375000000   12.7800000000  221.3560932073
407  1    0.8375000000   13.4900000000  222.5858492807
408  1    0.8375000000    2.1300000000   79.9341447693
409  1    0.8375000000   14.9100000000  222.5858492807
410  1    0.8375000000   24.1400000000   76.2448765492
411  1    0.8375000000   23.4300000000   77.4746326226
412  1    0.8375000000   22.0100000000   77.4746326226
413  1    0.8375000000   21.3000000000   76.2448765492
414  1    0.8375000000    2.1300000000  392.2921874063
415  1    0.8375000000    2.8400000000  391.0624313329
416  1    0.8375000000   17.7500000000  372.6160902323
417  1    0.8375000000   17.0400000000  371.3863341589
418  1    0.8375000000   15.6200000000  221.3560932073
419  1    0.8375000000    9.2300000000   79.9341447693
420  1    0.8375000000    2.8400000000   78.7043886959
421  1    0.8375000000   10.6500000000  222.5858492807
422  1    0.8375000000   21.3000000000  218.8965810606
423  1    0.8375000000   22.0100000000  220.1263371339
424  1    0.8375000000   23.4300000000  220.1263371339
425  1    0.8375000000   24.1400000000  218.8965810606
426  1    0.8375000000    0.0000000000  221.3560932073
427  1    0.8375000000    0.7100000000  222.5858492807
428  1    0.8375000000    2.1300000000  222.5858492807
429  1    0.8375000000    2.8400000000  221.3560932073
430  1    0.8375000000   11.3600000000  221.3560932073
431  1    0.8375000000    7.1000000000   78.7043886959
432  1    0.8375000000    4.9700000000   79.9341447693
433  1    0.8375000000    4.2600000000   78.7043886959
434  1    0.8375000000    4.2600000000  221.3560932073
435  1    0.8375000000    4.9700000000  222.5858492807
436  1    0.8375000000    6.3900000000  222.5858492807
437  1    0.8375000000    7.1000000000  221.3560932073
438  1    0.8375000000    8.5200000000  221.3560932073
439  1    0.8375000000    9.2300000000  222.5858492807
440  1    0.8375000000    6.3900000000   79.9341447693
441  1    0.8375000000   19.1700000000  217.6668249872
442  1    0.8375000000   17.7500000000  217.6668249872
443  1    0.8375000000   17.0400000000  216.4370689138
444  1    0.8375000000   23.4300000000   82.3936569161
445  1    0.8375000000   22.0100000000   82.3936569161
446  1    0.8375000000   21.3000000000   81.1639008427
447  1    0.8375000000    8.5200000000  213.9775567671
448  1    0.8375000000    9.2300000000  215.2073128404
449  1    0.8375000000   10.6500000000  215.2073128404
450  1    0.8375000000   11.3600000000  213.9775567671
451  1    0.8375000000   12.7800000000  213.9775567671
452  1    0.8375000000   24.1400000000   81.1639008427
453  1    0.8375000000   13.4900000000  215.2073128404
454  1    0.8375000000   15.6200000000  213.9775567671
455  1    0.8375000000   19.8800000000   81.1639008427
456  1    0.8375000000   19.1700000000   82.3936569161
457  1    0.8375000000   17.7500000000   82.3936569161
458  1    0.8375000000   17.0400000000   81.1639008427
459  1    0.8375000000   17.0400000000  213.9775567671
460  1    0.8375000000   17.7500000000  215.2073128404
461  1    0.8375000000   19.1700000000  215.2073128404
462  1    0.8375000000   14.9100000000  215.2073128404
463  1    0.8375000000   19.8800000000  213.9775567671
464  1    0.8375000000    7.1000000000  213.9775567671
465  1    0.8375000000    4.9700000000  215.2073128404
466  1    0.8375000000    4.2600000000  373.8458463057
467  1    0.8375000000   17.0400000000  211.5180446203
468  1    0.8375000000   17.7500000000  212.7478006937
469  1    0.8375000000   19.1700000000  212.7478006937
470  1    0.8375000000   19.8800000000  211.5180446203
471  1    0.8375000000   21.3000000000  211.5180446203
472  1    0.8375000000   22.0100000000  212.7478006937
473  1    0.8375000000   23.4300000000  212.7478006937
474  1    0.8375000000    6.3900000000  215.2073128404
475  1    0.8375000000   24.1400000000  211.5180446203
476  1    0.8375000000    2.1300000000   84.8531690628
477  1    0.8375000000    0.7100000000   84.8531690628
478  1    0.8375000000    0.0000000000   83.6234129894
479  1    0.8375000000    0.0000000000  213.9775567671
480  1    0.8375000000    0.7100000000  215.2073128404
481  1    0.8375000000    2.1300000000  215.2073128404
482  1    0.8375000000    2.8400000000  213.9775567671
483  1    0.8375000000    4.2600000000  213.9775567671
484  1    0.8375000000    2.8400000000   83.6234129894
485  1    0.8375000000   15.6200000000   81.1639008427
486  1    0.8375000000   14.9100000000   82.3936569161
487  1    0.8375000000   13.4900000000   82.3936569161
488  1    0.8375000000    8.5200000000  216.4370689138
489  1    0.8375000000    9.2300000000  217.6668249872
490  1    0.8375000000   10.6500000000  217.6668249872
491  1    0.8375000000   11.3600000000  216.4370689138
492  1    0.8375000000    7.1000000000   81.1639008427
493  1    0.8375000000    6.3900000000   82.3936569161
494  1    0.8375000000    4.9700000000   82.3936569161
495  1    0.8375000000    4.2600000000   81.1639008427
496  1    0.8375000000    7.1000000000  216.4370689138
497  1    0.8375000000   23.4300000000  389.8326752595
498  1    0.8375000000   12.7800000000  216.4370689138
499  1    0.8375000000   13.4900000000  217.6668249872
500  1    0.8375000000   14.9100000000  217.6668249872
501  1    0.8375000000   15.6200000000  216.4370689138
502  1    0.8375000000    2.8400000000   81.1639008427
503  1    0.8375000000    2.1300000000   82.3936569161
504  1    0.8375000000    0.7100000000   82.3936569161
505  1    0.8375000000    0.0000000000   81.1639008427
506  1    0.8375000000   24.1400000000  388.6029191862
507  1    0.8375000000    6.3900000000  217.6668249872
508  1    0.8375000000    4.9700000000  217.6668249872
509  1    0.8375000000    4.2600000000  216.4370689138
510  1    0.8375000000   12.7800000000   81.1639008427
511  1    0.8375000000    2.8400000000  373.8458463057
512  1    0.8375000000    2.1300000000  375.0756023790
513  1    0.8375000000   21.3000000000  213.9775567671
514  1    0.8375000000   22.0100000000  215.2073128404
515  1    0.8375000000   23.4300000000  215.2073128404
516  1    0.8375000000   24.1400000000  213.9775567671
517  1    0.8375000000    0.7100000000  375.0756023790
518  1    0.8375000000    0.0000000000  373.8458463057
519  1    0.8375000000    0.0000000000  216.4370689138
520  1    0.8375000000    0.7100000000  217.6668249872
521  1    0.8375000000    2.1300000000  217.6668249872
522  1    0.8375000000    2.8400000000  216.4370689138
523  1    0.8375000000   11.3600000000   81.1639008427
524  1    0.8375000000   10.6500000000   82.3936569161
525  1    0.8375000000    9.2300000000   82.3936569161
526  1    0.8375000000    8.5200000000   81.1639008427
527  1    0.8375000000   21.3000000000  388.6029191862
528  1    0.8375000000   22.0100000000  389.8326752595
529  1    0.8375000000   17.0400000000  221.3560932073
530  1    0.8375000000    9.2300000000   72.5556083291
531  1    0.8375000000   17.7500000000  222.5858492807
532  1    0.8375000000   19.8800000000  221.3560932073
533  1    0.8375000000   11.3600000000  228.7346296475
534  1    0.8375000000    7.1000000000   73.7853644024
535  1    0.8375000000    6.3900000000   75.0151204758
536  1    0.8375000000    4.9700000000   75.0151204758
537  1    0.8375000000    4.2600000000   73.7853644024
538  1    0.8375000000   12.7800000000  228.7346296475
539  1    0.8375000000   13.4900000000  229.9643857209
540  1    0.8375000000   14.9100000000  229.9643857209
541  1    0.8375000000   10.6500000000  229.9643857209
542  1    0.8375000000   15.6200000000  228.7346296475