Position data

 30240 atoms

 4 atom types

 0.0000  51.6497550817039  xlo xhi
 0.0000  51.1200000000000  ylo yhi
 0.0000  100.5000000000000  zlo zhi

Masses

  1   12.01100000   C
  2   12.01100000   C
  3   12.01100000   C
  4   12.01100000   C

Atoms

1  1    0.0000000000    0.0000000000    0.8375000000
2  1   23.3653653941    6.3900000000    0.8375000000
3  1   22.1356093207    7.1000000000    0.8375000000
4  1   39.3521943480   21.3000000000    0.8375000000
5  1   40.5819504213   22.0100000000    0.8375000000
6  1   40.5819504213   23.4300000000    0.8375000000
7  1   39.3521943480   24.1400000000    0.8375000000
8  1   31.9736579077   32.6600000000    0.8375000000
9  1   33.2034139811   31.9500000000    0.8375000000
10  1   33.2034139811   30.5300000000    0.8375000000
11  1   31.9736579077   29.8200000000    0.8375000000
12  1   31.9736579077   28.4000000000    0.8375000000
13  1   33.2034139811   27.6900000000    0.8375000000
14  1   33.2034139811   26.2700000000    0.8375000000
15  1   31.9736579077   25.5600000000    0.8375000000
16  1    7.3785364402   11.3600000000    0.8375000000
17  1   23.3653653941    4.9700000000    0.8375000000
18  1    8.6082925136   10.6500000000    0.8375000000
19  1   22.1356093207    4.2600000000    0.8375000000
20  1   50.4199990083   14.9100000000    0.8375000000
21  1    9.8380485870    7.1000000000    0.8375000000
22  1   22.1356093207    0.0000000000    0.8375000000
23  1   23.3653653941    0.7100000000    0.8375000000
24  1   23.3653653941    2.1300000000    0.8375000000
25  1   22.1356093207    2.8400000000    0.8375000000
26  1    0.0000000000   36.9200000000    0.8375000000
27  1    1.2297560734   36.2100000000    0.8375000000
28  1    1.2297560734   34.7900000000    0.8375000000
29  1    0.0000000000   34.0800000000    0.8375000000
30  1   31.9736579077   36.9200000000    0.8375000000
31  1   33.2034139811   36.2100000000    0.8375000000
32  1   33.2034139811   34.7900000000    0.8375000000
33  1   31.9736579077   34.0800000000    0.8375000000
34  1   49.1902429350   12.7800000000    0.8375000000
35  1   50.4199990083   13.4900000000    0.8375000000
36  1   49.1902429350   15.6200000000    0.8375000000
37  1   11.0678046604    6.3900000000    0.8375000000
38  1    8.6082925136    9.2300000000    0.8375000000
39  1   14.7570728805   24.1400000000    0.8375000000
40  1   39.3521943480   29.8200000000    0.8375000000
41  1   40.5819504213   30.5300000000    0.8375000000
42  1   40.5819504213   31.9500000000    0.8375000000
43  1   39.3521943480   32.6600000000    0.8375000000
44  1   22.1356093207   12.7800000000    0.8375000000
45  1   23.3653653941   13.4900000000    0.8375000000
46  1   23.3653653941   14.9100000000    0.8375000000
47  1   22.1356093207   15.6200000000    0.8375000000
48  1   15.9868289539   17.7500000000    0.8375000000
49  1   14.7570728805   17.0400000000    0.8375000000
50  1   33.2034139811   22.0100000000    0.8375000000
51  1   31.9736579077   21.3000000000    0.8375000000
52  1   22.1356093207   17.0400000000    0.8375000000
53  1   23.3653653941   17.7500000000    0.8375000000
54  1   23.3653653941   19.1700000000    0.8375000000
55  1   15.9868289539   19.1700000000    0.8375000000
56  1    7.3785364402    8.5200000000    0.8375000000
57  1   14.7570728805   19.8800000000    0.8375000000
58  1    3.6892682201   36.2100000000    0.8375000000
59  1   15.9868289539   23.4300000000    0.8375000000
60  1   39.3521943480   25.5600000000    0.8375000000
61  1   40.5819504213   26.2700000000    0.8375000000
62  1   40.5819504213   27.6900000000    0.8375000000
63  1   39.3521943480   28.4000000000    0.8375000000
64  1   22.1356093207    8.5200000000    0.8375000000
65  1   23.3653653941    9.2300000000    0.8375000000
66  1   23.3653653941   10.6500000000    0.8375000000
67  1   22.1356093207   11.3600000000    0.8375000000
68  1   15.9868289539   22.0100000000    0.8375000000
69  1   14.7570728805   21.3000000000    0.8375000000
70  1   31.9736579077   24.1400000000    0.8375000000
71  1   33.2034139811   23.4300000000    0.8375000000
72  1    2.4595121467   34.0800000000    0.8375000000
73  1    3.6892682201   34.7900000000    0.8375000000
74  1    2.4595121467   36.9200000000    0.8375000000
75  1   11.0678046604    4.9700000000    0.8375000000
76  1    9.8380485870    4.2600000000    0.8375000000
77  1    2.4595121467   32.6600000000    0.8375000000
78  1   19.6760971740   41.1800000000    0.8375000000
79  1   39.3521943480    8.5200000000    0.8375000000
80  1   40.5819504213    9.2300000000    0.8375000000
81  1   40.5819504213   10.6500000000    0.8375000000
82  1   39.3521943480   11.3600000000    0.8375000000
83  1   47.9604868616   17.7500000000    0.8375000000
84  1   46.7307307882   17.0400000000    0.8375000000
85  1   19.6760971740   42.6000000000    0.8375000000
86  1   20.9058532474   43.3100000000    0.8375000000
87  1   20.9058532474   44.7300000000    0.8375000000
88  1   19.6760971740   45.4400000000    0.8375000000
89  1   14.7570728805   32.6600000000    0.8375000000
90  1   15.9868289539   31.9500000000    0.8375000000
91  1   15.9868289539   30.5300000000    0.8375000000
92  1   14.7570728805   29.8200000000    0.8375000000
93  1   20.9058532474   40.4700000000    0.8375000000
94  1   46.7307307882   29.8200000000    0.8375000000
95  1   20.9058532474   39.0500000000    0.8375000000
96  1   31.9736579077   46.8600000000    0.8375000000
97  1    3.6892682201   27.6900000000    0.8375000000
98  1    2.4595121467   28.4000000000    0.8375000000
99  1    0.0000000000   41.1800000000    0.8375000000
100  1    1.2297560734   40.4700000000    0.8375000000
101  1    1.2297560734   39.0500000000    0.8375000000
102  1    0.0000000000   38.3400000000    0.8375000000
103  1   46.7307307882   19.8800000000    0.8375000000
104  1   47.9604868616   19.1700000000    0.8375000000
105  1   14.7570728805   36.9200000000    0.8375000000
106  1   15.9868289539   36.2100000000    0.8375000000
107  1   15.9868289539   34.7900000000    0.8375000000
108  1   14.7570728805   34.0800000000    0.8375000000
109  1   31.9736579077   49.7000000000    0.8375000000
110  1   33.2034139811   48.9900000000    0.8375000000
111  1   33.2034139811   47.5700000000    0.8375000000
112  1   19.6760971740   38.3400000000    0.8375000000
113  1   47.9604868616   30.5300000000    0.8375000000
114  1   31.9736579077   45.4400000000    0.8375000000
115  1   33.2034139811   44.7300000000    0.8375000000
116  1   19.6760971740   46.8600000000    0.8375000000
117  1   20.9058532474   47.5700000000    0.8375000000
118  1   20.9058532474   48.9900000000    0.8375000000
119  1   19.6760971740   49.7000000000    0.8375000000
120  1   39.3521943480   17.0400000000    0.8375000000
121  1   40.5819504213   17.7500000000    0.8375000000
122  1   40.5819504213   19.1700000000    0.8375000000
123  1   39.3521943480   19.8800000000    0.8375000000
124  1    2.4595121467   29.8200000000    0.8375000000
125  1    3.6892682201   30.5300000000    0.8375000000
126  1   14.7570728805   28.4000000000    0.8375000000
127  1   15.9868289539   27.6900000000    0.8375000000
128  1   15.9868289539   26.2700000000    0.8375000000
129  1   14.7570728805   25.5600000000    0.8375000000
130  1    3.6892682201   31.9500000000    0.8375000000
131  1    7.3785364402   12.7800000000    0.8375000000
132  1    8.6082925136   13.4900000000    0.8375000000
133  1   31.9736579077   38.3400000000    0.8375000000
134  1   33.2034139811   39.0500000000    0.8375000000
135  1   44.2712186415   28.4000000000    0.8375000000
136  1   45.5009747148   27.6900000000    0.8375000000
137  1   45.5009747148   26.2700000000    0.8375000000
138  1   44.2712186415   25.5600000000    0.8375000000
139  1   39.3521943480   12.7800000000    0.8375000000
140  1   40.5819504213   13.4900000000    0.8375000000
141  1   40.5819504213   14.9100000000    0.8375000000
142  1    9.8380485870    8.5200000000    0.8375000000
143  1   39.3521943480   15.6200000000    0.8375000000
144  1   31.9736579077   42.6000000000    0.8375000000
145  1    7.3785364402   15.6200000000    0.8375000000
146  1    8.6082925136   14.9100000000    0.8375000000
147  1   47.9604868616   31.9500000000    0.8375000000
148  1   46.7307307882   32.6600000000    0.8375000000
149  1   31.9736579077   41.1800000000    0.8375000000
150  1   33.2034139811   40.4700000000    0.8375000000
151  1   33.2034139811   43.3100000000    0.8375000000
152  1    3.6892682201   26.2700000000    0.8375000000
153  1   11.0678046604    9.2300000000    0.8375000000
154  1    9.8380485870   11.3600000000    0.8375000000
155  1   14.7570728805    0.0000000000    0.8375000000
156  1   22.1356093207   34.0800000000    0.8375000000
157  1   23.3653653941   34.7900000000    0.8375000000
158  1   23.3653653941   36.2100000000    0.8375000000
159  1   22.1356093207   36.9200000000    0.8375000000
160  1   29.5141457610   49.7000000000    0.8375000000
161  1   30.7439018343   48.9900000000    0.8375000000
162  1   12.2975607337   49.7000000000    0.8375000000
163  1   13.5273168071   48.9900000000    0.8375000000
164  1   39.3521943480   46.8600000000    0.8375000000
165  1   40.5819504213   47.5700000000    0.8375000000
166  1   40.5819504213   48.9900000000    0.8375000000
167  1   39.3521943480   49.7000000000    0.8375000000
168  1   30.7439018343   47.5700000000    0.8375000000
169  1   29.5141457610   46.8600000000    0.8375000000
170  1   15.9868289539    0.7100000000    0.8375000000
171  1   22.1356093207   38.3400000000    0.8375000000
172  1   15.9868289539    2.1300000000    0.8375000000
173  1    2.4595121467   45.4400000000    0.8375000000
174  1   31.9736579077    2.8400000000    0.8375000000
175  1   33.2034139811    2.1300000000    0.8375000000
176  1    0.0000000000   28.4000000000    0.8375000000
177  1    1.2297560734   27.6900000000    0.8375000000
178  1    1.2297560734   26.2700000000    0.8375000000
179  1    0.0000000000   25.5600000000    0.8375000000
180  1   33.2034139811    0.7100000000    0.8375000000
181  1   31.9736579077    0.0000000000    0.8375000000
182  1    7.3785364402    2.8400000000    0.8375000000
183  1    8.6082925136    2.1300000000    0.8375000000
184  1    8.6082925136    0.7100000000    0.8375000000
185  1    7.3785364402    0.0000000000    0.8375000000
186  1    2.4595121467   42.6000000000    0.8375000000
187  1    3.6892682201   43.3100000000    0.8375000000
188  1    3.6892682201   44.7300000000    0.8375000000
189  1   14.7570728805    2.8400000000    0.8375000000
190  1    9.8380485870   15.6200000000    0.8375000000
191  1   23.3653653941   39.0500000000    0.8375000000
192  1   22.1356093207   41.1800000000    0.8375000000
193  1   43.0414625681    0.7100000000    0.8375000000
194  1   43.0414625681    2.1300000000    0.8375000000
195  1   41.8117064947    2.8400000000    0.8375000000
196  1   29.5141457610   41.1800000000    0.8375000000
197  1   30.7439018343   40.4700000000    0.8375000000
198  1   30.7439018343   39.0500000000    0.8375000000
199  1   29.5141457610   38.3400000000    0.8375000000
200  1   46.7307307882   34.0800000000    0.8375000000
201  1   47.9604868616   34.7900000000    0.8375000000
202  1   29.5141457610   36.9200000000    0.8375000000
203  1   30.7439018343   36.2100000000    0.8375000000
204  1   46.7307307882   45.4400000000    0.8375000000
205  1   47.9604868616   44.7300000000    0.8375000000
206  1   47.9604868616   43.3100000000    0.8375000000
207  1   46.7307307882   42.6000000000    0.8375000000
208  1   41.8117064947    0.0000000000    0.8375000000
209  1   23.3653653941   40.4700000000    0.8375000000
210  1   12.2975607337   42.6000000000    0.8375000000
211  1   44.2712186415   21.3000000000    0.8375000000
212  1   13.5273168071   47.5700000000    0.8375000000
213  1   12.2975607337   46.8600000000    0.8375000000
214  1   29.5141457610   45.4400000000    0.8375000000
215  1   30.7439018343   44.7300000000    0.8375000000
216  1   30.7439018343   43.3100000000    0.8375000000
217  1   29.5141457610   42.6000000000    0.8375000000
218  1   12.2975607337   45.4400000000    0.8375000000
219  1   13.5273168071   44.7300000000    0.8375000000
220  1   22.1356093207   42.6000000000    0.8375000000
221  1   23.3653653941   43.3100000000    0.8375000000
222  1   23.3653653941   44.7300000000    0.8375000000
223  1   22.1356093207   45.4400000000    0.8375000000
224  1   44.2712186415   24.1400000000    0.8375000000
225  1   45.5009747148   23.4300000000    0.8375000000
226  1   45.5009747148   22.0100000000    0.8375000000
227  1   13.5273168071   43.3100000000    0.8375000000
228  1   11.0678046604   14.9100000000    0.8375000000
229  1   11.0678046604   13.4900000000    0.8375000000
230  1    9.8380485870   12.7800000000    0.8375000000
231  1   15.9868289539   13.4900000000    0.8375000000
232  1   14.7570728805   12.7800000000    0.8375000000
233  1   39.3521943480   34.0800000000    0.8375000000
234  1   40.5819504213   34.7900000000    0.8375000000
235  1   40.5819504213   36.2100000000    0.8375000000
236  1   39.3521943480   36.9200000000    0.8375000000
237  1    7.3785364402    7.1000000000    0.8375000000
238  1    8.6082925136    6.3900000000    0.8375000000
239  1    8.6082925136    4.9700000000    0.8375000000
240  1    7.3785364402    4.2600000000    0.8375000000
241  1   22.1356093207   21.3000000000    0.8375000000
242  1   23.3653653941   22.0100000000    0.8375000000
243  1   23.3653653941   23.4300000000    0.8375000000
244  1   22.1356093207   24.1400000000    0.8375000000
245  1   31.9736579077   11.3600000000    0.8375000000
246  1   15.9868289539   14.9100000000    0.8375000000
247  1   33.2034139811   10.6500000000    0.8375000000
248  1   14.7570728805   15.6200000000    0.8375000000
249  1   45.5009747148   44.7300000000    0.8375000000
250  1   22.1356093207   19.8800000000    0.8375000000
251  1   31.9736579077   19.8800000000    0.8375000000
252  1   33.2034139811   19.1700000000    0.8375000000
253  1   33.2034139811   17.7500000000    0.8375000000
254  1   31.9736579077   17.0400000000    0.8375000000
255  1    0.0000000000   32.6600000000    0.8375000000
256  1    1.2297560734   31.9500000000    0.8375000000
257  1    1.2297560734   30.5300000000    0.8375000000
258  1    0.0000000000   29.8200000000    0.8375000000
259  1   31.9736579077   15.6200000000    0.8375000000
260  1   33.2034139811   14.9100000000    0.8375000000
261  1   33.2034139811   13.4900000000    0.8375000000
262  1   31.9736579077   12.7800000000    0.8375000000
263  1   44.2712186415   42.6000000000    0.8375000000
264  1   45.5009747148   43.3100000000    0.8375000000
265  1   44.2712186415   45.4400000000    0.8375000000
266  1   33.2034139811    9.2300000000    0.8375000000
267  1   31.9736579077    8.5200000000    0.8375000000
268  1   14.7570728805   11.3600000000    0.8375000000
269  1   33.2034139811    6.3900000000    0.8375000000
270  1   39.3521943480   42.6000000000    0.8375000000
271  1   40.5819504213   43.3100000000    0.8375000000
272  1   40.5819504213   44.7300000000    0.8375000000
273  1   39.3521943480   45.4400000000    0.8375000000
274  1   33.2034139811    4.9700000000    0.8375000000
275  1   31.9736579077    4.2600000000    0.8375000000
276  1   46.7307307882   15.6200000000    0.8375000000
277  1   47.9604868616   14.9100000000    0.8375000000
278  1   47.9604868616   13.4900000000    0.8375000000
279  1   46.7307307882   12.7800000000    0.8375000000
280  1   22.1356093207   29.8200000000    0.8375000000
281  1   23.3653653941   30.5300000000    0.8375000000
282  1   23.3653653941   31.9500000000    0.8375000000
283  1   22.1356093207   32.6600000000    0.8375000000
284  1   31.9736579077    7.1000000000    0.8375000000
285  1   14.7570728805    4.2600000000    0.8375000000
286  1   15.9868289539    4.9700000000    0.8375000000
287  1   15.9868289539    6.3900000000    0.8375000000
288  1   15.9868289539   10.6500000000    0.8375000000
289  1   15.9868289539    9.2300000000    0.8375000000
290  1   14.7570728805    8.5200000000    0.8375000000
291  1   39.3521943480   38.3400000000    0.8375000000
292  1   40.5819504213   39.0500000000    0.8375000000
293  1   40.5819504213   40.4700000000    0.8375000000
294  1   39.3521943480   41.1800000000    0.8375000000
295  1   11.0678046604   10.6500000000    0.8375000000
296  1    2.4595121467   38.3400000000    0.8375000000
297  1    3.6892682201   40.4700000000    0.8375000000
298  1    2.4595121467   41.1800000000    0.8375000000
299  1   22.1356093207   25.5600000000    0.8375000000
300  1   23.3653653941   26.2700000000    0.8375000000
301  1   23.3653653941   27.6900000000    0.8375000000
302  1   22.1356093207   28.4000000000    0.8375000000
303  1   14.7570728805    7.1000000000    0.8375000000
304  1    2.4595121467    7.1000000000    0.8375000000
305  1    2.4595121467   25.5600000000    0.8375000000
306  1   19.6760971740   36.9200000000    0.8375000000
307  1   20.9058532474   36.2100000000    0.8375000000
308  1   47.9604868616   26.2700000000    0.8375000000
309  1   47.9604868616   27.6900000000    0.8375000000
310  1   46.7307307882   28.4000000000    0.8375000000
311  1    7.3785364402   32.6600000000    0.8375000000
312  1    8.6082925136   31.9500000000    0.8375000000
313  1    8.6082925136   30.5300000000    0.8375000000
314  1    7.3785364402   29.8200000000    0.8375000000
315  1   44.2712186415   32.6600000000    0.8375000000
316  1   45.5009747148   31.9500000000    0.8375000000
317  1   36.8926822012   21.3000000000    0.8375000000
318  1   38.1224382746   22.0100000000    0.8375000000
319  1   38.1224382746   23.4300000000    0.8375000000
320  1   36.8926822012   24.1400000000    0.8375000000
321  1   49.1902429350   19.8800000000    0.8375000000
322  1   50.4199990083   19.1700000000    0.8375000000
323  1   46.7307307882   25.5600000000    0.8375000000
324  1   46.7307307882   46.8600000000    0.8375000000
325  1   44.2712186415   36.9200000000    0.8375000000
326  1   17.2165850272   17.0400000000    0.8375000000
327  1   17.2165850272   46.8600000000    0.8375000000
328  1   18.4463411006   47.5700000000    0.8375000000
329  1   18.4463411006   48.9900000000    0.8375000000
330  1    2.4595121467    2.8400000000    0.8375000000
331  1    3.6892682201    2.1300000000    0.8375000000
332  1    3.6892682201    0.7100000000    0.8375000000
333  1    2.4595121467    0.0000000000    0.8375000000
334  1   17.2165850272   49.7000000000    0.8375000000
335  1   34.4331700545   41.1800000000    0.8375000000
336  1   35.6629261278   40.4700000000    0.8375000000
337  1   35.6629261278   39.0500000000    0.8375000000
338  1   34.4331700545   38.3400000000    0.8375000000
339  1   17.2165850272   19.8800000000    0.8375000000
340  1   18.4463411006   19.1700000000    0.8375000000
341  1   18.4463411006   17.7500000000    0.8375000000
342  1   45.5009747148   36.2100000000    0.8375000000
343  1   45.5009747148   34.7900000000    0.8375000000
344  1   34.4331700545   36.9200000000    0.8375000000
345  1   35.6629261278   34.7900000000    0.8375000000
346  1    2.4595121467   15.6200000000    0.8375000000
347  1   17.2165850272   15.6200000000    0.8375000000
348  1   18.4463411006   14.9100000000    0.8375000000
349  1   18.4463411006   13.4900000000    0.8375000000
350  1   17.2165850272   12.7800000000    0.8375000000
351  1   20.9058532474    2.1300000000    0.8375000000
352  1   19.6760971740    2.8400000000    0.8375000000
353  1   19.6760971740    4.2600000000    0.8375000000
354  1   20.9058532474    4.9700000000    0.8375000000
355  1   36.8926822012   29.8200000000    0.8375000000
356  1   38.1224382746   30.5300000000    0.8375000000
357  1    7.3785364402   42.6000000000    0.8375000000
358  1    8.6082925136   43.3100000000    0.8375000000
359  1    8.6082925136   44.7300000000    0.8375000000
360  1    7.3785364402   45.4400000000    0.8375000000
361  1    3.6892682201   14.9100000000    0.8375000000
362  1   35.6629261278   36.2100000000    0.8375000000
363  1    3.6892682201   13.4900000000    0.8375000000
364  1   20.9058532474    0.7100000000    0.8375000000
365  1   34.4331700545   34.0800000000    0.8375000000
366  1   47.9604868616   47.5700000000    0.8375000000
367  1   47.9604868616   48.9900000000    0.8375000000
368  1   46.7307307882   49.7000000000    0.8375000000
369  1   46.7307307882   24.1400000000    0.8375000000
370  1   47.9604868616   23.4300000000    0.8375000000
371  1   45.5009747148   30.5300000000    0.8375000000
372  1   44.2712186415   29.8200000000    0.8375000000
373  1   36.8926822012   25.5600000000    0.8375000000
374  1   38.1224382746   26.2700000000    0.8375000000
375  1   38.1224382746   27.6900000000    0.8375000000
376  1   36.8926822012   28.4000000000    0.8375000000
377  1   47.9604868616   22.0100000000    0.8375000000
378  1   46.7307307882   21.3000000000    0.8375000000
379  1   19.6760971740    0.0000000000    0.8375000000
380  1    2.4595121467   12.7800000000    0.8375000000
381  1   44.2712186415   34.0800000000    0.8375000000
382  1    2.4595121467   11.3600000000    0.8375000000
383  1    3.6892682201   10.6500000000    0.8375000000
384  1   36.8926822012    2.8400000000    0.8375000000
385  1   38.1224382746    2.1300000000    0.8375000000
386  1   38.1224382746    0.7100000000    0.8375000000
387  1   36.8926822012    0.0000000000    0.8375000000
388  1   49.1902429350   25.5600000000    0.8375000000
389  1   50.4199990083   26.2700000000    0.8375000000
390  1    7.3785364402   36.9200000000    0.8375000000
391  1    8.6082925136   36.2100000000    0.8375000000
392  1    8.6082925136   34.7900000000    0.8375000000
393  1    7.3785364402   34.0800000000    0.8375000000
394  1   17.2165850272   38.3400000000    0.8375000000
395  1   18.4463411006   39.0500000000    0.8375000000
396  1   18.4463411006   40.4700000000    0.8375000000
397  1   17.2165850272   28.4000000000    0.8375000000
398  1   18.4463411006   27.6900000000    0.8375000000
399  1   36.8926822012   11.3600000000    0.8375000000
400  1   18.4463411006   26.2700000000    0.8375000000
401  1   38.1224382746   10.6500000000    0.8375000000
402  1   36.8926822012    8.5200000000    0.8375000000
403  1    3.6892682201    6.3900000000    0.8375000000
404  1    3.6892682201    4.9700000000    0.8375000000
405  1    2.4595121467    4.2600000000    0.8375000000
406  1   17.2165850272   34.0800000000    0.8375000000
407  1   18.4463411006   34.7900000000    0.8375000000
408  1   18.4463411006   36.2100000000    0.8375000000
409  1   17.2165850272   36.9200000000    0.8375000000
410  1   36.8926822012    7.1000000000    0.8375000000
411  1   38.1224382746    6.3900000000    0.8375000000
412  1   38.1224382746    4.9700000000    0.8375000000
413  1   36.8926822012    4.2600000000    0.8375000000
414  1   17.2165850272   32.6600000000    0.8375000000
415  1   18.4463411006   31.9500000000    0.8375000000
416  1   18.4463411006   30.5300000000    0.8375000000
417  1   17.2165850272   29.8200000000    0.8375000000
418  1   38.1224382746    9.2300000000    0.8375000000
419  1   17.2165850272   25.5600000000    0.8375000000
420  1   49.1902429350   38.3400000000    0.8375000000
421  1   50.4199990083   39.0500000000    0.8375000000
422  1   35.6629261278   44.7300000000    0.8375000000
423  1   35.6629261278   43.3100000000    0.8375000000
424  1   17.2165850272   24.1400000000    0.8375000000
425  1   18.4463411006   23.4300000000    0.8375000000
426  1   36.8926822012   17.0400000000    0.8375000000
427  1   38.1224382746   17.7500000000    0.8375000000
428  1   38.1224382746   19.1700000000    0.8375000000
429  1   36.8926822012   19.8800000000    0.8375000000
430  1   18.4463411006   22.0100000000    0.8375000000
431  1   17.2165850272   21.3000000000    0.8375000000
432  1   50.4199990083   40.4700000000    0.8375000000
433  1   49.1902429350   41.1800000000    0.8375000000
434  1   34.4331700545   42.6000000000    0.8375000000
435  1    2.4595121467    8.5200000000    0.8375000000
436  1    3.6892682201    9.2300000000    0.8375000000
437  1   34.4331700545   45.4400000000    0.8375000000
438  1   17.2165850272   45.4400000000    0.8375000000
439  1   18.4463411006   44.7300000000    0.8375000000
440  1    7.3785364402   41.1800000000    0.8375000000
441  1   36.8926822012   12.7800000000    0.8375000000
442  1   38.1224382746   13.4900000000    0.8375000000
443  1   38.1224382746   14.9100000000    0.8375000000
444  1   36.8926822012   15.6200000000    0.8375000000
445  1   17.2165850272   41.1800000000    0.8375000000
446  1   34.4331700545   49.7000000000    0.8375000000
447  1   35.6629261278   48.9900000000    0.8375000000
448  1   20.9058532474    6.3900000000    0.8375000000
449  1   35.6629261278   47.5700000000    0.8375000000
450  1   50.4199990083   27.6900000000    0.8375000000
451  1   49.1902429350   28.4000000000    0.8375000000
452  1   17.2165850272   42.6000000000    0.8375000000
453  1   18.4463411006   43.3100000000    0.8375000000
454  1    7.3785364402   38.3400000000    0.8375000000
455  1    8.6082925136   39.0500000000    0.8375000000
456  1    8.6082925136   40.4700000000    0.8375000000
457  1   34.4331700545   46.8600000000    0.8375000000
458  1   19.6760971740    7.1000000000    0.8375000000
459  1   34.4331700545   32.6600000000    0.8375000000
460  1   35.6629261278   31.9500000000    0.8375000000
461  1    2.4595121467   21.3000000000    0.8375000000
462  1    3.6892682201   22.0100000000    0.8375000000
463  1    3.6892682201   23.4300000000    0.8375000000
464  1    2.4595121467   24.1400000000    0.8375000000
465  1   19.6760971740   29.8200000000    0.8375000000
466  1   20.9058532474   30.5300000000    0.8375000000
467  1   14.7570728805   49.7000000000    0.8375000000
468  1   15.9868289539   48.9900000000    0.8375000000
469  1   15.9868289539   47.5700000000    0.8375000000
470  1   14.7570728805   46.8600000000    0.8375000000
471  1   34.4331700545   11.3600000000    0.8375000000
472  1   35.6629261278   10.6500000000    0.8375000000
473  1   39.3521943480    0.0000000000    0.8375000000
474  1   40.5819504213    0.7100000000    0.8375000000
475  1   40.5819504213    2.1300000000    0.8375000000
476  1   36.8926822012   49.7000000000    0.8375000000
477  1   39.3521943480    2.8400000000    0.8375000000
478  1   38.1224382746   48.9900000000    0.8375000000
479  1   36.8926822012   46.8600000000    0.8375000000
480  1    1.2297560734   44.7300000000    0.8375000000
481  1    1.2297560734   43.3100000000    0.8375000000
482  1    0.0000000000   42.6000000000    0.8375000000
483  1   49.1902429350   11.3600000000    0.8375000000
484  1   50.4199990083   10.6500000000    0.8375000000
485  1   17.2165850272    2.8400000000    0.8375000000
486  1   18.4463411006    2.1300000000    0.8375000000
487  1   18.4463411006    0.7100000000    0.8375000000
488  1   17.2165850272    0.0000000000    0.8375000000
489  1   50.4199990083    9.2300000000    0.8375000000
490  1   49.1902429350    8.5200000000    0.8375000000
491  1   19.6760971740   25.5600000000    0.8375000000
492  1   20.9058532474   26.2700000000    0.8375000000
493  1   20.9058532474   27.6900000000    0.8375000000
494  1   19.6760971740   28.4000000000    0.8375000000
495  1   38.1224382746   47.5700000000    0.8375000000
496  1   35.6629261278    9.2300000000    0.8375000000
497  1   34.4331700545    8.5200000000    0.8375000000
498  1   20.9058532474   31.9500000000    0.8375000000
499  1   39.3521943480    7.1000000000    0.8375000000
500  1   34.4331700545    2.8400000000    0.8375000000
501  1   35.6629261278    2.1300000000    0.8375000000
502  1   35.6629261278    0.7100000000    0.8375000000
503  1   34.4331700545    0.0000000000    0.8375000000
504  1   44.2712186415   38.3400000000    0.8375000000
505  1   45.5009747148   39.0500000000    0.8375000000
506  1    9.8380485870    0.0000000000    0.8375000000
507  1   11.0678046604    0.7100000000    0.8375000000
508  1   11.0678046604    2.1300000000    0.8375000000
509  1    9.8380485870    2.8400000000    0.8375000000
510  1   45.5009747148   40.4700000000    0.8375000000
511  1   44.2712186415   41.1800000000    0.8375000000
512  1   19.6760971740   34.0800000000    0.8375000000
513  1   20.9058532474   34.7900000000    0.8375000000
514  1   40.5819504213    6.3900000000    0.8375000000
515  1   40.5819504213    4.9700000000    0.8375000000
516  1   39.3521943480    4.2600000000    0.8375000000
517  1   14.7570728805   38.3400000000    0.8375000000
518  1   19.6760971740   32.6600000000    0.8375000000
519  1   34.4331700545    7.1000000000    0.8375000000
520  1   35.6629261278    6.3900000000    0.8375000000
521  1   14.7570728805   45.4400000000    0.8375000000
522  1   15.9868289539   44.7300000000    0.8375000000
523  1   15.9868289539   43.3100000000    0.8375000000
524  1   14.7570728805   42.6000000000    0.8375000000
525  1    0.0000000000   45.4400000000    0.8375000000
526  1   35.6629261278    4.9700000000    0.8375000000
527  1    7.3785364402   19.8800000000    0.8375000000
528  1    8.6082925136   19.1700000000    0.8375000000
529  1    8.6082925136   17.7500000000    0.8375000000
530  1    7.3785364402   17.0400000000    0.8375000000
531  1   14.7570728805   41.1800000000    0.8375000000
532  1   15.9868289539   40.4700000000    0.8375000000
533  1   15.9868289539   39.0500000000    0.8375000000
534  1   34.4331700545    4.2600000000    0.8375000000
535  1   30.7439018343   34.7900000000    0.8375000000
536  1   34.4331700545   12.7800000000    0.8375000000
537  1   35.6629261278   14.9100000000    0.8375000000
538  1   19.6760971740   11.3600000000    0.8375000000
539  1   36.8926822012   34.0800000000    0.8375000000
540  1   38.1224382746   34.7900000000    0.8375000000
541  1   38.1224382746   36.2100000000    0.8375000000
542  1   36.8926822012   36.9200000000    0.8375000000