Position data

 2880 atoms

 2 atom types

 0.0000  9.8380485869912  xlo xhi
 0.0000  12.7800000000000  ylo yhi
 0.0000  201.0000000000000  zlo zhi

Masses

  1   12.01100000   C
  2   12.01100000   C

Atoms

1  1      7.3785364402    0.0000000000    0.8375000000
2  1      8.6082925136    0.7100000000    0.8375000000
3  1      8.6082925136    2.1300000000    0.8375000000
4  1      7.3785364402    2.8400000000    0.8375000000
5  1      7.3785364402    4.2600000000    0.8375000000
6  1      8.6082925136    4.9700000000    0.8375000000
7  1      8.6082925136    6.3900000000    0.8375000000
8  1      7.3785364402    7.1000000000    0.8375000000
9  1      7.3785364402    8.5200000000    0.8375000000
10  1      8.6082925136    9.2300000000    0.8375000000
11  1      8.6082925136   10.6500000000    0.8375000000
12  1      7.3785364402   11.3600000000    0.8375000000
13  1      4.9190242935    0.0000000000    0.8375000000
14  1      6.1487803669    0.7100000000    0.8375000000
15  1      6.1487803669    2.1300000000    0.8375000000
16  1      4.9190242935    2.8400000000    0.8375000000
17  1      4.9190242935    4.2600000000    0.8375000000
18  1      6.1487803669    4.9700000000    0.8375000000
19  1      6.1487803669    6.3900000000    0.8375000000
20  1      4.9190242935    7.1000000000    0.8375000000
21  1      4.9190242935    8.5200000000    0.8375000000
22  1      6.1487803669    9.2300000000    0.8375000000
23  1      6.1487803669   10.6500000000    0.8375000000
24  1      4.9190242935   11.3600000000    0.8375000000
25  1      2.4595121467    0.0000000000    0.8375000000
26  1      3.6892682201    0.7100000000    0.8375000000
27  1      3.6892682201    2.1300000000    0.8375000000
28  1      2.4595121467    2.8400000000    0.8375000000
29  1      2.4595121467    4.2600000000    0.8375000000
30  1      3.6892682201    4.9700000000    0.8375000000
31  1      3.6892682201    6.3900000000    0.8375000000
32  1      2.4595121467    7.1000000000    0.8375000000
33  1      2.4595121467    8.5200000000    0.8375000000
34  1      3.6892682201    9.2300000000    0.8375000000
35  1      3.6892682201   10.6500000000    0.8375000000
36  1      2.4595121467   11.3600000000    0.8375000000
37  1      0.0000000000    0.0000000000    0.8375000000
38  1      1.2297560734    0.7100000000    0.8375000000
39  1      1.2297560734    2.1300000000    0.8375000000
40  1      0.0000000000    2.8400000000    0.8375000000
41  1      0.0000000000    4.2600000000    0.8375000000
42  1      1.2297560734    4.9700000000    0.8375000000
43  1      1.2297560734    6.3900000000    0.8375000000
44  1      0.0000000000    7.1000000000    0.8375000000
45  1      0.0000000000    8.5200000000    0.8375000000
46  1      1.2297560734    9.2300000000    0.8375000000
47  1      1.2297560734   10.6500000000    0.8375000000
48  1      0.0000000000   11.3600000000    0.8375000000
49  2      7.3785364402    1.4200000000    4.1875000000
50  2      8.6082925136    2.1300000000    4.1875000000
51  2      8.6082925136    3.5500000000    4.1875000000
52  2      7.3785364402    4.2600000000    4.1875000000
53  2      7.3785364402    5.6800000000    4.1875000000
54  2      8.6082925136    6.3900000000    4.1875000000
55  2      8.6082925136    7.8100000000    4.1875000000
56  2      7.3785364402    8.5200000000    4.1875000000
57  2      7.3785364402    9.9400000000    4.1875000000
58  2      8.6082925136   10.6500000000    4.1875000000
59  2      8.6082925136   12.0700000000    4.1875000000
60  2      7.3785364402   12.7800000000    4.1875000000
61  2      4.9190242935    1.4200000000    4.1875000000
62  2      6.1487803669    2.1300000000    4.1875000000
63  2      6.1487803669    3.5500000000    4.1875000000
64  2      4.9190242935    4.2600000000    4.1875000000
65  2      4.9190242935    5.6800000000    4.1875000000
66  2      6.1487803669    6.3900000000    4.1875000000
67  2      6.1487803669    7.8100000000    4.1875000000
68  2      4.9190242935    8.5200000000    4.1875000000
69  2      4.9190242935    9.9400000000    4.1875000000
70  2      6.1487803669   10.6500000000    4.1875000000
71  2      6.1487803669   12.0700000000    4.1875000000
72  2      4.9190242935   12.7800000000    4.1875000000
73  2      2.4595121467    1.4200000000    4.1875000000
74  2      3.6892682201    2.1300000000    4.1875000000
75  2      3.6892682201    3.5500000000    4.1875000000
76  2      2.4595121467    4.2600000000    4.1875000000
77  2      2.4595121467    5.6800000000    4.1875000000
78  2      3.6892682201    6.3900000000    4.1875000000
79  2      3.6892682201    7.8100000000    4.1875000000
80  2      2.4595121467    8.5200000000    4.1875000000
81  2      2.4595121467    9.9400000000    4.1875000000
82  2      3.6892682201   10.6500000000    4.1875000000
83  2      3.6892682201   12.0700000000    4.1875000000
84  2      2.4595121467   12.7800000000    4.1875000000
85  2      0.0000000000    1.4200000000    4.1875000000
86  2      1.2297560734    2.1300000000    4.1875000000
87  2      1.2297560734    3.5500000000    4.1875000000
88  2      0.0000000000    4.2600000000    4.1875000000
89  2      0.0000000000    5.6800000000    4.1875000000
90  2      1.2297560734    6.3900000000    4.1875000000
91  2      1.2297560734    7.8100000000    4.1875000000
92  2      0.0000000000    8.5200000000    4.1875000000
93  2      0.0000000000    9.9400000000    4.1875000000
94  2      1.2297560734   10.6500000000    4.1875000000
95  2      1.2297560734   12.0700000000    4.1875000000
96  2      0.0000000000   12.7800000000    4.1875000000
97  1      7.3785364402    0.0000000000    7.5375000000
98  1      8.6082925136    0.7100000000    7.5375000000
99  1      8.6082925136    2.1300000000    7.5375000000
100  1      7.3785364402    2.8400000000    7.5375000000
101  1      7.3785364402    4.2600000000    7.5375000000
102  1      8.6082925136    4.9700000000    7.5375000000
103  1      8.6082925136    6.3900000000    7.5375000000
104  1      7.3785364402    7.1000000000    7.5375000000
105  1      7.3785364402    8.5200000000    7.5375000000
106  1      8.6082925136    9.2300000000    7.5375000000
107  1      8.6082925136   10.6500000000    7.5375000000
108  1      7.3785364402   11.3600000000    7.5375000000
109  1      4.9190242935    0.0000000000    7.5375000000
110  1      6.1487803669    0.7100000000    7.5375000000
111  1      6.1487803669    2.1300000000    7.5375000000
112  1      4.9190242935    2.8400000000    7.5375000000
113  1      4.9190242935    4.2600000000    7.5375000000
114  1      6.1487803669    4.9700000000    7.5375000000
115  1      6.1487803669    6.3900000000    7.5375000000
116  1      4.9190242935    7.1000000000    7.5375000000
117  1      4.9190242935    8.5200000000    7.5375000000
118  1      6.1487803669    9.2300000000    7.5375000000
119  1      6.1487803669   10.6500000000    7.5375000000
120  1      4.9190242935   11.3600000000    7.5375000000
121  1      2.4595121467    0.0000000000    7.5375000000
122  1      3.6892682201    0.7100000000    7.5375000000
123  1      3.6892682201    2.1300000000    7.5375000000
124  1      2.4595121467    2.8400000000    7.5375000000
125  1      2.4595121467    4.2600000000    7.5375000000
126  1      3.6892682201    4.9700000000    7.5375000000
127  1      3.6892682201    6.3900000000    7.5375000000
128  1      2.4595121467    7.1000000000    7.5375000000
129  1      2.4595121467    8.5200000000    7.5375000000
130  1      3.6892682201    9.2300000000    7.5375000000
131  1      3.6892682201   10.6500000000    7.5375000000
132  1      2.4595121467   11.3600000000    7.5375000000
133  1      0.0000000000    0.0000000000    7.5375000000
134  1      1.2297560734    0.7100000000    7.5375000000
135  1      1.2297560734    2.1300000000    7.5375000000
136  1      0.0000000000    2.8400000000    7.5375000000
137  1      0.0000000000    4.2600000000    7.5375000000
138  1      1.2297560734    4.9700000000    7.5375000000
139  1      1.2297560734    6.3900000000    7.5375000000
140  1      0.0000000000    7.1000000000    7.5375000000
141  1      0.0000000000    8.5200000000    7.5375000000
142  1      1.2297560734    9.2300000000    7.5375000000
143  1      1.2297560734   10.6500000000    7.5375000000
144  1      0.0000000000   11.3600000000    7.5375000000
145  2      7.3785364402    1.4200000000   10.8875000000
146  2      8.6082925136    2.1300000000   10.8875000000
147  2      8.6082925136    3.5500000000   10.8875000000
148  2      7.3785364402    4.2600000000   10.8875000000
149  2      7.3785364402    5.6800000000   10.8875000000
150  2      8.6082925136    6.3900000000   10.8875000000
151  2      8.6082925136    7.8100000000   10.8875000000
152  2      7.3785364402    8.5200000000   10.8875000000
153  2      7.3785364402    9.9400000000   10.8875000000
154  2      8.6082925136   10.6500000000   10.8875000000
155  2      8.6082925136   12.0700000000   10.8875000000
156  2      7.3785364402   12.7800000000   10.8875000000
157  2      4.9190242935    1.4200000000   10.8875000000
158  2      6.1487803669    2.1300000000   10.8875000000
159  2      6.1487803669    3.5500000000   10.8875000000
160  2      4.9190242935    4.2600000000   10.8875000000
161  2      4.9190242935    5.6800000000   10.8875000000
162  2      6.1487803669    6.3900000000   10.8875000000
163  2      6.1487803669    7.8100000000   10.8875000000
164  2      4.9190242935    8.5200000000   10.8875000000
165  2      4.9190242935    9.9400000000   10.8875000000
166  2      6.1487803669   10.6500000000   10.8875000000
167  2      6.1487803669   12.0700000000   10.8875000000
168  2      4.9190242935   12.7800000000   10.8875000000
169  2      2.4595121467    1.4200000000   10.8875000000
170  2      3.6892682201    2.1300000000   10.8875000000
171  2      3.6892682201    3.5500000000   10.8875000000
172  2      2.4595121467    4.2600000000   10.8875000000
173  2      2.4595121467    5.6800000000   10.8875000000
174  2      3.6892682201    6.3900000000   10.8875000000
175  2      3.6892682201    7.8100000000   10.8875000000
176  2      2.4595121467    8.5200000000   10.8875000000
177  2      2.4595121467    9.9400000000   10.8875000000
178  2      3.6892682201   10.6500000000   10.8875000000
179  2      3.6892682201   12.0700000000   10.8875000000
180  2      2.4595121467   12.7800000000   10.8875000000
181  2      0.0000000000    1.4200000000   10.8875000000
182  2      1.2297560734    2.1300000000   10.8875000000
183  2      1.2297560734    3.5500000000   10.8875000000
184  2      0.0000000000    4.2600000000   10.8875000000
185  2      0.0000000000    5.6800000000   10.8875000000
186  2      1.2297560734    6.3900000000   10.8875000000
187  2      1.2297560734    7.8100000000   10.8875000000
188  2      0.0000000000    8.5200000000   10.8875000000
189  2      0.0000000000    9.9400000000   10.8875000000
190  2      1.2297560734   10.6500000000   10.8875000000
191  2      1.2297560734   12.0700000000   10.8875000000
192  2      0.0000000000   12.7800000000   10.8875000000
193  1      7.3785364402    0.0000000000   14.2375000000
194  1      8.6082925136    0.7100000000   14.2375000000
195  1      8.6082925136    2.1300000000   14.2375000000
196  1      7.3785364402    2.8400000000   14.2375000000
197  1      7.3785364402    4.2600000000   14.2375000000
198  1      8.6082925136    4.9700000000   14.2375000000
199  1      8.6082925136    6.3900000000   14.2375000000
200  1      7.3785364402    7.1000000000   14.2375000000
201  1      7.3785364402    8.5200000000   14.2375000000
202  1      8.6082925136    9.2300000000   14.2375000000
203  1      8.6082925136   10.6500000000   14.2375000000
204  1      7.3785364402   11.3600000000   14.2375000000
205  1      4.9190242935    0.0000000000   14.2375000000
206  1      6.1487803669    0.7100000000   14.2375000000
207  1      6.1487803669    2.1300000000   14.2375000000
208  1      4.9190242935    2.8400000000   14.2375000000
209  1      4.9190242935    4.2600000000   14.2375000000
210  1      6.1487803669    4.9700000000   14.2375000000
211  1      6.1487803669    6.3900000000   14.2375000000
212  1      4.9190242935    7.1000000000   14.2375000000
213  1      4.9190242935    8.5200000000   14.2375000000
214  1      6.1487803669    9.2300000000   14.2375000000
215  1      6.1487803669   10.6500000000   14.2375000000
216  1      4.9190242935   11.3600000000   14.2375000000
217  1      2.4595121467    0.0000000000   14.2375000000
218  1      3.6892682201    0.7100000000   14.2375000000
219  1      3.6892682201    2.1300000000   14.2375000000
220  1      2.4595121467    2.8400000000   14.2375000000
221  1      2.4595121467    4.2600000000   14.2375000000
222  1      3.6892682201    4.9700000000   14.2375000000
223  1      3.6892682201    6.3900000000   14.2375000000
224  1      2.4595121467    7.1000000000   14.2375000000
225  1      2.4595121467    8.5200000000   14.2375000000
226  1      3.6892682201    9.2300000000   14.2375000000
227  1      3.6892682201   10.6500000000   14.2375000000
228  1      2.4595121467   11.3600000000   14.2375000000
229  1      0.0000000000    0.0000000000   14.2375000000
230  1      1.2297560734    0.7100000000   14.2375000000
231  1      1.2297560734    2.1300000000   14.2375000000
232  1      0.0000000000    2.8400000000   14.2375000000
233  1      0.0000000000    4.2600000000   14.2375000000
234  1      1.2297560734    4.9700000000   14.2375000000
235  1      1.2297560734    6.3900000000   14.2375000000
236  1      0.0000000000    7.1000000000   14.2375000000
237  1      0.0000000000    8.5200000000   14.2375000000
238  1      1.2297560734    9.2300000000   14.2375000000
239  1      1.2297560734   10.6500000000   14.2375000000
240  1      0.0000000000   11.3600000000   14.2375000000
241  2      7.3785364402    1.4200000000   17.5875000000
242  2      8.6082925136    2.1300000000   17.5875000000
243  2      8.6082925136    3.5500000000   17.5875000000
244  2      7.3785364402    4.2600000000   17.5875000000
245  2      7.3785364402    5.6800000000   17.5875000000
246  2      8.6082925136    6.3900000000   17.5875000000
247  2      8.6082925136    7.8100000000   17.5875000000
248  2      7.3785364402    8.5200000000   17.5875000000
249  2      7.3785364402    9.9400000000   17.5875000000
250  2      8.6082925136   10.6500000000   17.5875000000
251  2      8.6082925136   12.0700000000   17.5875000000
252  2      7.3785364402   12.7800000000   17.5875000000
253  2      4.9190242935    1.4200000000   17.5875000000
254  2      6.1487803669    2.1300000000   17.5875000000
255  2      6.1487803669    3.5500000000   17.5875000000
256  2      4.9190242935    4.2600000000   17.5875000000
257  2      4.9190242935    5.6800000000   17.5875000000
258  2      6.1487803669    6.3900000000   17.5875000000
259  2      6.1487803669    7.8100000000   17.5875000000
260  2      4.9190242935    8.5200000000   17.5875000000
261  2      4.9190242935    9.9400000000   17.5875000000
262  2      6.1487803669   10.6500000000   17.5875000000
263  2      6.1487803669   12.0700000000   17.5875000000
264  2      4.9190242935   12.7800000000   17.5875000000
265  2      2.4595121467    1.4200000000   17.5875000000
266  2      3.6892682201    2.1300000000   17.5875000000
267  2      3.6892682201    3.5500000000   17.5875000000
268  2      2.4595121467    4.2600000000   17.5875000000
269  2      2.4595121467    5.6800000000   17.5875000000
270  2      3.6892682201    6.3900000000   17.5875000000
271  2      3.6892682201    7.8100000000   17.5875000000
272  2      2.4595121467    8.5200000000   17.5875000000
273  2      2.4595121467    9.9400000000   17.5875000000
274  2      3.6892682201   10.6500000000   17.5875000000
275  2      3.6892682201   12.0700000000   17.5875000000
276  2      2.4595121467   12.7800000000   17.5875000000
277  2      0.0000000000    1.4200000000   17.5875000000
278  2      1.2297560734    2.1300000000   17.5875000000
279  2      1.2297560734    3.5500000000   17.5875000000
280  2      0.0000000000    4.2600000000   17.5875000000
281  2      0.0000000000    5.6800000000   17.5875000000
282  2      1.2297560734    6.3900000000   17.5875000000
283  2      1.2297560734    7.8100000000   17.5875000000
284  2      0.0000000000    8.5200000000   17.5875000000
285  2      0.0000000000    9.9400000000   17.5875000000
286  2      1.2297560734   10.6500000000   17.5875000000
287  2      1.2297560734   12.0700000000   17.5875000000
288  2      0.0000000000   12.7800000000   17.5875000000
289  1      7.3785364402    0.0000000000   20.9375000000
290  1      8.6082925136    0.7100000000   20.9375000000
291  1      8.6082925136    2.1300000000   20.9375000000
292  1      7.3785364402    2.8400000000   20.9375000000
293  1      7.3785364402    4.2600000000   20.9375000000
294  1      8.6082925136    4.9700000000   20.9375000000
295  1      8.6082925136    6.3900000000   20.9375000000
296  1      7.3785364402    7.1000000000   20.9375000000
297  1      7.3785364402    8.5200000000   20.9375000000
298  1      8.6082925136    9.2300000000   20.9375000000
299  1      8.6082925136   10.6500000000   20.9375000000
300  1      7.3785364402   11.3600000000   20.9375000000
301  1      4.9190242935    0.0000000000   20.9375000000
302  1      6.1487803669    0.7100000000   20.9375000000
303  1      6.1487803669    2.1300000000   20.9375000000
304  1      4.9190242935    2.8400000000   20.9375000000
305  1      4.9190242935    4.2600000000   20.9375000000
306  1      6.1487803669    4.9700000000   20.9375000000
307  1      6.1487803669    6.3900000000   20.9375000000
308  1      4.9190242935    7.1000000000   20.9375000000
309  1      4.9190242935    8.5200000000   20.9375000000
310  1      6.1487803669    9.2300000000   20.9375000000
311  1      6.1487803669   10.6500000000   20.9375000000
312  1      4.9190242935   11.3600000000   20.9375000000
313  1      2.4595121467    0.0000000000   20.9375000000
314  1      3.6892682201    0.7100000000   20.9375000000
315  1      3.6892682201    2.1300000000   20.9375000000
316  1      2.4595121467    2.8400000000   20.9375000000
317  1      2.4595121467    4.2600000000   20.9375000000
318  1      3.6892682201    4.9700000000   20.9375000000
319  1      3.6892682201    6.3900000000   20.9375000000
320  1      2.4595121467    7.1000000000   20.9375000000
321  1      2.4595121467    8.5200000000   20.9375000000
322  1      3.6892682201    9.2300000000   20.9375000000
323  1      3.6892682201   10.6500000000   20.9375000000
324  1      2.4595121467   11.3600000000   20.9375000000
325  1      0.0000000000    0.0000000000   20.9375000000
326  1      1.2297560734    0.7100000000   20.9375000000
327  1      1.2297560734    2.1300000000   20.9375000000
328  1      0.0000000000    2.8400000000   20.9375000000
329  1      0.0000000000    4.2600000000   20.9375000000
330  1      1.2297560734    4.9700000000   20.9375000000
331  1      1.2297560734    6.3900000000   20.9375000000
332  1      0.0000000000    7.1000000000   20.9375000000
333  1      0.0000000000    8.5200000000   20.9375000000
334  1      1.2297560734    9.2300000000   20.9375000000
335  1      1.2297560734   10.6500000000   20.9375000000
336  1      0.0000000000   11.3600000000   20.9375000000
337  2      7.3785364402    1.4200000000   24.2875000000
338  2      8.6082925136    2.1300000000   24.2875000000
339  2      8.6082925136    3.5500000000   24.2875000000
340  2      7.3785364402    4.2600000000   24.2875000000
341  2      7.3785364402    5.6800000000   24.2875000000
342  2      8.6082925136    6.3900000000   24.2875000000
343  2      8.6082925136    7.8100000000   24.2875000000
344  2      7.3785364402    8.5200000000   24.2875000000
345  2      7.3785364402    9.9400000000   24.2875000000
346  2      8.6082925136   10.6500000000   24.2875000000
347  2      8.6082925136   12.0700000000   24.2875000000
348  2      7.3785364402   12.7800000000   24.2875000000
349  2      4.9190242935    1.4200000000   24.2875000000
350  2      6.1487803669    2.1300000000   24.2875000000
351  2      6.1487803669    3.5500000000   24.2875000000
352  2      4.9190242935    4.2600000000   24.2875000000
353  2      4.9190242935    5.6800000000   24.2875000000
354  2      6.1487803669    6.3900000000   24.2875000000
355  2      6.1487803669    7.8100000000   24.2875000000
356  2      4.9190242935    8.5200000000   24.2875000000
357  2      4.9190242935    9.9400000000   24.2875000000
358  2      6.1487803669   10.6500000000   24.2875000000
359  2      6.1487803669   12.0700000000   24.2875000000
360  2      4.9190242935   12.7800000000   24.2875000000
361  2      2.4595121467    1.4200000000   24.2875000000
362  2      3.6892682201    2.1300000000   24.2875000000
363  2      3.6892682201    3.5500000000   24.2875000000
364  2      2.4595121467    4.2600000000   24.2875000000
365  2      2.4595121467    5.6800000000   24.2875000000
366  2      3.6892682201    6.3900000000   24.2875000000
367  2      3.6892682201    7.8100000000   24.2875000000
368  2      2.4595121467    8.5200000000   24.2875000000
369  2      2.4595121467    9.9400000000   24.2875000000
370  2      3.6892682201   10.6500000000   24.2875000000
371  2      3.6892682201   12.0700000000   24.2875000000
372  2      2.4595121467   12.7800000000   24.2875000000
373  2      0.0000000000    1.4200000000   24.2875000000
374  2      1.2297560734    2.1300000000   24.2875000000
375  2      1.2297560734    3.5500000000   24.2875000000
376  2      0.0000000000    4.2600000000   24.2875000000
377  2      0.0000000000    5.6800000000   24.2875000000
378  2      1.2297560734    6.3900000000   24.2875000000
379  2      1.2297560734    7.8100000000   24.2875000000
380  2      0.0000000000    8.5200000000   24.2875000000
381  2      0.0000000000    9.9400000000   24.2875000000
382  2      1.2297560734   10.6500000000   24.2875000000
383  2      1.2297560734   12.0700000000   24.2875000000
384  2      0.0000000000   12.7800000000   24.2875000000
385  1      7.3785364402    0.0000000000   27.6375000000
386  1      8.6082925136    0.7100000000   27.6375000000
387  1      8.6082925136    2.1300000000   27.6375000000
388  1      7.3785364402    2.8400000000   27.6375000000
389  1      7.3785364402    4.2600000000   27.6375000000
390  1      8.6082925136    4.9700000000   27.6375000000
391  1      8.6082925136    6.3900000000   27.6375000000
392  1      7.3785364402    7.1000000000   27.6375000000
393  1      7.3785364402    8.5200000000   27.6375000000
394  1      8.6082925136    9.2300000000   27.6375000000
395  1      8.6082925136   10.6500000000   27.6375000000
396  1      7.3785364402   11.3600000000   27.6375000000
397  1      4.9190242935    0.0000000000   27.6375000000
398  1      6.1487803669    0.7100000000   27.6375000000
399  1      6.1487803669    2.1300000000   27.6375000000
400  1      4.9190242935    2.8400000000   27.6375000000
401  1      4.9190242935    4.2600000000   27.6375000000
402  1      6.1487803669    4.9700000000   27.6375000000
403  1      6.1487803669    6.3900000000   27.6375000000
404  1      4.9190242935    7.1000000000   27.6375000000
405  1      4.9190242935    8.5200000000   27.6375000000
406  1      6.1487803669    9.2300000000   27.6375000000
407  1      6.1487803669   10.6500000000   27.6375000000
408  1      4.9190242935   11.3600000000   27.6375000000
409  1      2.4595121467    0.0000000000   27.6375000000
410  1      3.6892682201    0.7100000000   27.6375000000
411  1      3.6892682201    2.1300000000   27.6375000000
412  1      2.4595121467    2.8400000000   27.6375000000
413  1      2.4595121467    4.2600000000   27.6375000000
414  1      3.6892682201    4.9700000000   27.6375000000
415  1      3.6892682201    6.3900000000   27.6375000000
416  1      2.4595121467    7.1000000000   27.6375000000
417  1      2.4595121467    8.5200000000   27.6375000000
418  1      3.6892682201    9.2300000000   27.6375000000
419  1      3.6892682201   10.6500000000   27.6375000000
420  1      2.4595121467   11.3600000000   27.6375000000
421  1      0.0000000000    0.0000000000   27.6375000000
422  1      1.2297560734    0.7100000000   27.6375000000
423  1      1.2297560734    2.1300000000   27.6375000000
424  1      0.0000000000    2.8400000000   27.6375000000
425  1      0.0000000000    4.2600000000   27.6375000000
426  1      1.2297560734    4.9700000000   27.6375000000
427  1      1.2297560734    6.3900000000   27.6375000000
428  1      0.0000000000    7.1000000000   27.6375000000
429  1      0.0000000000    8.5200000000   27.6375000000
430  1      1.2297560734    9.2300000000   27.6375000000
431  1      1.2297560734   10.6500000000   27.6375000000
432  1      0.0000000000   11.3600000000   27.6375000000
433  2      7.3785364402    1.4200000000   30.9875000000
434  2      8.6082925136    2.1300000000   30.9875000000
435  2      8.6082925136    3.5500000000   30.9875000000
436  2      7.3785364402    4.2600000000   30.9875000000
437  2      7.3785364402    5.6800000000   30.9875000000
438  2      8.6082925136    6.3900000000   30.9875000000
439  2      8.6082925136    7.8100000000   30.9875000000
440  2      7.3785364402    8.5200000000   30.9875000000
441  2      7.3785364402    9.9400000000   30.9875000000
442  2      8.6082925136   10.6500000000   30.9875000000
443  2      8.6082925136   12.0700000000   30.9875000000
444  2      7.3785364402   12.7800000000   30.9875000000
445  2      4.9190242935    1.4200000000   30.9875000000
446  2      6.1487803669    2.1300000000   30.9875000000
447  2      6.1487803669    3.5500000000   30.9875000000
448  2      4.9190242935    4.2600000000   30.9875000000
449  2      4.9190242935    5.6800000000   30.9875000000
450  2      6.1487803669    6.3900000000   30.9875000000
451  2      6.1487803669    7.8100000000   30.9875000000
452  2      4.9190242935    8.5200000000   30.9875000000
453  2      4.9190242935    9.9400000000   30.9875000000
454  2      6.1487803669   10.6500000000   30.9875000000
455  2      6.1487803669   12.0700000000   30.9875000000
456  2      4.9190242935   12.7800000000   30.9875000000
457  2      2.4595121467    1.4200000000   30.9875000000
458  2      3.6892682201    2.1300000000   30.9875000000
459  2      3.6892682201    3.5500000000   30.9875000000
460  2      2.4595121467    4.2600000000   30.9875000000
461  2      2.4595121467    5.6800000000   30.9875000000
462  2      3.6892682201    6.3900000000   30.9875000000
463  2      3.6892682201    7.8100000000   30.9875000000
464  2      2.4595121467    8.5200000000   30.9875000000
465  2      2.4595121467    9.9400000000   30.9875000000
466  2      3.6892682201   10.6500000000   30.9875000000
467  2      3.6892682201   12.0700000000   30.9875000000
468  2      2.4595121467   12.7800000000   30.9875000000
469  2      0.0000000000    1.4200000000   30.9875000000
470  2      1.2297560734    2.1300000000   30.9875000000
471  2      1.2297560734    3.5500000000   30.9875000000
472  2      0.0000000000    4.2600000000   30.9875000000
473  2      0.0000000000    5.6800000000   30.9875000000
474  2      1.2297560734    6.3900000000   30.9875000000
475  2      1.2297560734    7.8100000000   30.9875000000
476  2      0.0000000000    8.5200000000   30.9875000000
477  2      0.0000000000    9.9400000000   30.9875000000
478  2      1.2297560734   10.6500000000   30.9875000000
479  2      1.2297560734   12.0700000000   30.9875000000
480  2      0.0000000000   12.7800000000   30.9875000000
481  1      7.3785364402    0.0000000000   34.3375000000
482  1      8.6082925136    0.7100000000   34.3375000000
483  1      8.6082925136    2.1300000000   34.3375000000
484  1      7.3785364402    2.8400000000   34.3375000000
485  1      7.3785364402    4.2600000000   34.3375000000
486  1      8.6082925136    4.9700000000   34.3375000000
487  1      8.6082925136    6.3900000000   34.3375000000
488  1      7.3785364402    7.1000000000   34.3375000000
489  1      7.3785364402    8.5200000000   34.3375000000
490  1      8.6082925136    9.2300000000   34.3375000000
491  1      8.6082925136   10.6500000000   34.3375000000
492  1      7.3785364402   11.3600000000   34.3375000000
493  1      4.9190242935    0.0000000000   34.3375000000
494  1      6.1487803669    0.7100000000   34.3375000000
495  1      6.1487803669    2.1300000000   34.3375000000
496  1      4.9190242935    2.8400000000   34.3375000000
497  1      4.9190242935    4.2600000000   34.3375000000
498  1      6.1487803669    4.9700000000   34.3375000000
499  1      6.1487803669    6.3900000000   34.3375000000
500  1      4.9190242935    7.1000000000   34.3375000000
501  1      4.9190242935    8.5200000000   34.3375000000
502  1      6.1487803669    9.2300000000   34.3375000000
503  1      6.1487803669   10.6500000000   34.3375000000
504  1      4.9190242935   11.3600000000   34.3375000000
505  1      2.4595121467    0.0000000000   34.3375000000
506  1      3.6892682201    0.7100000000   34.3375000000
507  1      3.6892682201    2.1300000000   34.3375000000
508  1      2.4595121467    2.8400000000   34.3375000000
509  1      2.4595121467    4.2600000000   34.3375000000
510  1      3.6892682201    4.9700000000   34.3375000000
511  1      3.6892682201    6.3900000000   34.3375000000
512  1      2.4595121467    7.1000000000   34.3375000000
513  1      2.4595121467    8.5200000000   34.3375000000
514  1      3.6892682201    9.2300000000   34.3375000000
515  1      3.6892682201   10.6500000000   34.3375000000
516  1      2.4595121467   11.3600000000   34.3375000000
517  1      0.0000000000    0.0000000000   34.3375000000
518  1      1.2297560734    0.7100000000   34.3375000000
519  1      1.2297560734    2.1300000000   34.3375000000
520  1      0.0000000000    2.8400000000   34.3375000000
521  1      0.0000000000    4.2600000000   34.3375000000
522  1      1.2297560734    4.9700000000   34.3375000000
523  1      1.2297560734    6.3900000000   34.3375000000
524  1      0.0000000000    7.1000000000   34.3375000000